<?xml version="1.0" encoding="UTF-8"?>

<!-- generated on 2021-10-25 15:18:12 by Eclipse SUMO GUI Version 1.9.2
<configuration xmlns:xsi="http://www.w3.org/2001/XMLSchema-instance" xsi:noNamespaceSchemaLocation="http://sumo.dlr.de/xsd/sumoConfiguration.xsd">

    <input>
        <net-file value="shortlong.net.xml"/>
        <route-files value="shortlong.rou.xml"/>
        <additional-files value="additional.xml"/>
    </input>

    <output>
        <tripinfo-output value="tripinfo.xml"/>
    </output>

    <time>
        <begin value="0"/>
        <end value="10000"/>
    </time>

    <processing>
        <time-to-teleport value="-1"/>
    </processing>

    <traci_server>
        <remote-port value="49697"/>
    </traci_server>

</configuration>
-->

<tripinfos xmlns:xsi="http://www.w3.org/2001/XMLSchema-instance" xsi:noNamespaceSchemaLocation="http://sumo.dlr.de/xsd/tripinfo_file.xsd">
    <tripinfo id="0.0" depart="0.00" departLane="start_0" departPos="5.10" departSpeed="0.00" departDelay="0.00" arrival="171.00" arrivalLane="goal_0" arrivalPos="498.34" arrivalSpeed="14.13" duration="171.00" routeLength="2274.60" waitingTime="0.00" waitingCount="0" stopTime="0.00" timeLoss="15.18" rerouteNo="1" devices="tripinfo_0.0 routing_0.0" vType="DEFAULT_VEHTYPE" speedFactor="1.06" vaporized=""/>
    <tripinfo id="0.1" depart="3.00" departLane="start_0" departPos="5.10" departSpeed="0.00" departDelay="2.00" arrival="195.00" arrivalLane="goal_0" arrivalPos="498.34" arrivalSpeed="12.94" duration="192.00" routeLength="2274.60" waitingTime="0.00" waitingCount="0" stopTime="0.00" timeLoss="16.71" rerouteNo="1" devices="tripinfo_0.1 routing_0.1" vType="DEFAULT_VEHTYPE" speedFactor="0.94" vaporized=""/>
    <tripinfo id="0.2" depart="6.00" departLane="start_0" departPos="5.10" departSpeed="0.00" departDelay="4.00" arrival="195.00" arrivalLane="goal_1" arrivalPos="498.34" arrivalSpeed="13.43" duration="189.00" routeLength="2274.60" waitingTime="0.00" waitingCount="0" stopTime="0.00" timeLoss="25.54" rerouteNo="1" devices="tripinfo_0.2 routing_0.2" vType="DEFAULT_VEHTYPE" speedFactor="1.01" vaporized=""/>
    <tripinfo id="0.3" depart="9.00" departLane="start_0" departPos="5.10" departSpeed="0.00" departDelay="6.00" arrival="196.00" arrivalLane="goal_1" arrivalPos="498.34" arrivalSpeed="14.95" duration="187.00" routeLength="2274.60" waitingTime="0.00" waitingCount="0" stopTime="0.00" timeLoss="34.94" rerouteNo="1" devices="tripinfo_0.3 routing_0.3" vType="DEFAULT_VEHTYPE" speedFactor="1.08" vaporized=""/>
    <tripinfo id="0.4" depart="12.00" departLane="start_0" departPos="5.10" departSpeed="0.00" departDelay="8.00" arrival="198.00" arrivalLane="goal_0" arrivalPos="498.34" arrivalSpeed="13.50" duration="186.00" routeLength="2274.60" waitingTime="0.00" waitingCount="0" stopTime="0.00" timeLoss="25.85" rerouteNo="1" devices="tripinfo_0.4 routing_0.4" vType="DEFAULT_VEHTYPE" speedFactor="1.03" vaporized=""/>
    <tripinfo id="0.6" depart="18.00" departLane="start_0" departPos="5.10" departSpeed="0.00" departDelay="12.00" arrival="200.00" arrivalLane="goal_0" arrivalPos="498.34" arrivalSpeed="14.34" duration="182.00" routeLength="2274.60" waitingTime="0.00" waitingCount="0" stopTime="0.00" timeLoss="23.36" rerouteNo="1" devices="tripinfo_0.6 routing_0.6" vType="DEFAULT_VEHTYPE" speedFactor="1.05" vaporized=""/>
    <tripinfo id="0.7" depart="21.00" departLane="start_0" departPos="5.10" departSpeed="0.00" departDelay="14.00" arrival="232.00" arrivalLane="goal_1" arrivalPos="498.34" arrivalSpeed="11.56" duration="211.00" routeLength="2274.60" waitingTime="0.00" waitingCount="0" stopTime="0.00" timeLoss="25.76" rerouteNo="1" devices="tripinfo_0.7 routing_0.7" vType="DEFAULT_VEHTYPE" speedFactor="0.89" vaporized=""/>
    <tripinfo id="0.5" depart="15.00" departLane="start_0" departPos="5.10" departSpeed="0.00" departDelay="10.00" arrival="233.00" arrivalLane="goal_0" arrivalPos="498.34" arrivalSpeed="11.43" duration="218.00" routeLength="2274.60" waitingTime="0.00" waitingCount="0" stopTime="0.00" timeLoss="19.43" rerouteNo="1" devices="tripinfo_0.5 routing_0.5" vType="DEFAULT_VEHTYPE" speedFactor="0.83" vaporized=""/>
    <tripinfo id="0.8" depart="24.00" departLane="start_0" departPos="5.10" departSpeed="0.00" departDelay="16.00" arrival="234.00" arrivalLane="goal_0" arrivalPos="498.34" arrivalSpeed="11.97" duration="210.00" routeLength="2274.60" waitingTime="0.00" waitingCount="0" stopTime="0.00" timeLoss="34.51" rerouteNo="1" devices="tripinfo_0.8 routing_0.8" vType="DEFAULT_VEHTYPE" speedFactor="0.94" vaporized=""/>
    <tripinfo id="0.10" depart="30.00" departLane="start_0" departPos="5.10" departSpeed="0.00" departDelay="20.00" arrival="235.00" arrivalLane="goal_1" arrivalPos="498.34" arrivalSpeed="14.92" duration="205.00" routeLength="2274.60" waitingTime="0.00" waitingCount="0" stopTime="0.00" timeLoss="52.93" rerouteNo="1" devices="tripinfo_0.10 routing_0.10" vType="DEFAULT_VEHTYPE" speedFactor="1.09" vaporized=""/>
    <tripinfo id="0.11" depart="33.00" departLane="start_0" departPos="5.10" departSpeed="0.00" departDelay="22.00" arrival="237.00" arrivalLane="goal_1" arrivalPos="498.34" arrivalSpeed="13.57" duration="204.00" routeLength="2274.60" waitingTime="0.00" waitingCount="0" stopTime="0.00" timeLoss="43.04" rerouteNo="1" devices="tripinfo_0.11 routing_0.11" vType="DEFAULT_VEHTYPE" speedFactor="1.03" vaporized=""/>
    <tripinfo id="0.9" depart="27.00" departLane="start_0" departPos="5.10" departSpeed="0.00" departDelay="18.00" arrival="239.00" arrivalLane="goal_0" arrivalPos="498.34" arrivalSpeed="11.85" duration="212.00" routeLength="2274.60" waitingTime="0.00" waitingCount="0" stopTime="0.00" timeLoss="19.85" rerouteNo="1" devices="tripinfo_0.9 routing_0.9" vType="DEFAULT_VEHTYPE" speedFactor="0.86" vaporized=""/>
    <tripinfo id="0.12" depart="37.00" departLane="start_0" departPos="5.10" departSpeed="0.00" departDelay="25.00" arrival="239.00" arrivalLane="goal_1" arrivalPos="498.34" arrivalSpeed="13.70" duration="202.00" routeLength="2274.60" waitingTime="0.00" waitingCount="0" stopTime="0.00" timeLoss="44.71" rerouteNo="1" devices="tripinfo_0.12 routing_0.12" vType="DEFAULT_VEHTYPE" speedFactor="1.05" vaporized=""/>
    <tripinfo id="0.13" depart="40.00" departLane="start_0" departPos="5.10" departSpeed="0.00" departDelay="27.00" arrival="240.00" arrivalLane="goal_1" arrivalPos="498.34" arrivalSpeed="15.00" duration="200.00" routeLength="2274.60" waitingTime="0.00" waitingCount="0" stopTime="0.00" timeLoss="53.87" rerouteNo="1" devices="tripinfo_0.13 routing_0.13" vType="DEFAULT_VEHTYPE" speedFactor="1.12" vaporized=""/>
    <tripinfo id="0.14" depart="43.00" departLane="start_0" departPos="5.10" departSpeed="0.00" departDelay="29.00" arrival="244.00" arrivalLane="goal_0" arrivalPos="498.34" arrivalSpeed="13.02" duration="201.00" routeLength="2274.60" waitingTime="0.00" waitingCount="0" stopTime="0.00" timeLoss="34.15" rerouteNo="1" devices="tripinfo_0.14 routing_0.14" vType="DEFAULT_VEHTYPE" speedFactor="0.99" vaporized=""/>
    <tripinfo id="0.15" depart="46.00" departLane="start_0" departPos="5.10" departSpeed="0.00" departDelay="31.00" arrival="250.00" arrivalLane="goal_0" arrivalPos="498.34" arrivalSpeed="12.44" duration="204.00" routeLength="2274.60" waitingTime="0.00" waitingCount="0" stopTime="0.00" timeLoss="26.58" rerouteNo="1" devices="tripinfo_0.15 routing_0.15" vType="DEFAULT_VEHTYPE" speedFactor="0.93" vaporized=""/>
    <tripinfo id="0.16" depart="49.00" departLane="start_0" departPos="5.10" departSpeed="0.00" departDelay="33.00" arrival="259.00" arrivalLane="goal_0" arrivalPos="498.34" arrivalSpeed="10.95" duration="210.00" routeLength="2274.60" waitingTime="0.00" waitingCount="0" stopTime="0.00" timeLoss="22.66" rerouteNo="1" devices="tripinfo_0.16 routing_0.16" vType="DEFAULT_VEHTYPE" speedFactor="0.88" vaporized=""/>
    <tripinfo id="0.17" depart="52.00" departLane="start_0" departPos="5.10" departSpeed="0.00" departDelay="35.00" arrival="259.00" arrivalLane="goal_1" arrivalPos="498.34" arrivalSpeed="12.62" duration="207.00" routeLength="2274.60" waitingTime="0.00" waitingCount="0" stopTime="0.00" timeLoss="31.09" rerouteNo="1" devices="tripinfo_0.17 routing_0.17" vType="DEFAULT_VEHTYPE" speedFactor="0.94" vaporized=""/>
    <tripinfo id="0.18" depart="55.00" departLane="start_0" departPos="5.10" departSpeed="0.00" departDelay="37.00" arrival="261.00" arrivalLane="goal_1" arrivalPos="498.34" arrivalSpeed="12.27" duration="206.00" routeLength="2274.60" waitingTime="0.00" waitingCount="0" stopTime="0.00" timeLoss="30.62" rerouteNo="1" devices="tripinfo_0.18 routing_0.18" vType="DEFAULT_VEHTYPE" speedFactor="0.94" vaporized=""/>
    <tripinfo id="0.19" depart="58.00" departLane="start_0" departPos="5.10" departSpeed="0.00" departDelay="39.00" arrival="261.00" arrivalLane="goal_0" arrivalPos="498.34" arrivalSpeed="15.16" duration="203.00" routeLength="2274.60" waitingTime="0.00" waitingCount="0" stopTime="0.00" timeLoss="60.76" rerouteNo="1" devices="tripinfo_0.19 routing_0.19" vType="DEFAULT_VEHTYPE" speedFactor="1.16" vaporized=""/>
    <tripinfo id="0.20" depart="61.00" departLane="start_0" departPos="5.10" departSpeed="0.00" departDelay="41.00" arrival="262.00" arrivalLane="goal_0" arrivalPos="498.34" arrivalSpeed="13.64" duration="201.00" routeLength="2274.60" waitingTime="0.00" waitingCount="0" stopTime="0.00" timeLoss="39.75" rerouteNo="1" devices="tripinfo_0.20 routing_0.20" vType="DEFAULT_VEHTYPE" speedFactor="1.02" vaporized=""/>
    <tripinfo id="0.21" depart="64.00" departLane="start_0" departPos="5.10" departSpeed="0.00" departDelay="43.00" arrival="265.00" arrivalLane="goal_0" arrivalPos="498.34" arrivalSpeed="13.99" duration="201.00" routeLength="2274.60" waitingTime="0.00" waitingCount="0" stopTime="0.00" timeLoss="36.94" rerouteNo="1" devices="tripinfo_0.21 routing_0.21" vType="DEFAULT_VEHTYPE" speedFactor="1.01" vaporized=""/>
    <tripinfo id="0.22" depart="67.00" departLane="start_0" departPos="5.10" departSpeed="0.00" departDelay="45.00" arrival="269.00" arrivalLane="goal_0" arrivalPos="498.34" arrivalSpeed="12.45" duration="202.00" routeLength="2274.60" waitingTime="0.00" waitingCount="0" stopTime="0.00" timeLoss="33.75" rerouteNo="1" devices="tripinfo_0.22 routing_0.22" vType="DEFAULT_VEHTYPE" speedFactor="0.98" vaporized=""/>
    <tripinfo id="0.23" depart="70.00" departLane="start_0" departPos="5.10" departSpeed="0.00" departDelay="47.00" arrival="281.00" arrivalLane="goal_0" arrivalPos="498.34" arrivalSpeed="11.35" duration="211.00" routeLength="2274.60" waitingTime="0.00" waitingCount="0" stopTime="0.00" timeLoss="25.67" rerouteNo="1" devices="tripinfo_0.23 routing_0.23" vType="DEFAULT_VEHTYPE" speedFactor="0.89" vaporized=""/>
    <tripinfo id="0.24" depart="73.00" departLane="start_0" departPos="5.10" departSpeed="0.00" departDelay="49.00" arrival="292.00" arrivalLane="goal_0" arrivalPos="498.34" arrivalSpeed="10.34" duration="219.00" routeLength="2274.60" waitingTime="0.00" waitingCount="0" stopTime="0.00" timeLoss="18.96" rerouteNo="1" devices="tripinfo_0.24 routing_0.24" vType="DEFAULT_VEHTYPE" speedFactor="0.83" vaporized=""/>
    <tripinfo id="0.25" depart="76.00" departLane="start_0" departPos="5.10" departSpeed="0.00" departDelay="51.00" arrival="293.00" arrivalLane="goal_1" arrivalPos="498.34" arrivalSpeed="10.89" duration="217.00" routeLength="2274.60" waitingTime="0.00" waitingCount="0" stopTime="0.00" timeLoss="28.20" rerouteNo="1" devices="tripinfo_0.25 routing_0.25" vType="DEFAULT_VEHTYPE" speedFactor="0.87" vaporized=""/>
    <tripinfo id="0.26" depart="79.00" departLane="start_0" departPos="5.10" departSpeed="0.00" departDelay="53.00" arrival="294.00" arrivalLane="goal_1" arrivalPos="498.34" arrivalSpeed="12.05" duration="215.00" routeLength="2274.60" waitingTime="0.00" waitingCount="0" stopTime="0.00" timeLoss="35.31" rerouteNo="1" devices="tripinfo_0.26 routing_0.26" vType="DEFAULT_VEHTYPE" speedFactor="0.92" vaporized=""/>
    <tripinfo id="0.28" depart="85.00" departLane="start_0" departPos="5.10" departSpeed="0.00" departDelay="57.00" arrival="294.00" arrivalLane="goal_0" arrivalPos="498.34" arrivalSpeed="15.17" duration="209.00" routeLength="2274.60" waitingTime="0.00" waitingCount="0" stopTime="0.00" timeLoss="62.83" rerouteNo="1" devices="tripinfo_0.28 routing_0.28" vType="DEFAULT_VEHTYPE" speedFactor="1.13" vaporized=""/>
    <tripinfo id="0.27" depart="82.00" departLane="start_0" departPos="5.10" departSpeed="0.00" departDelay="55.00" arrival="295.00" arrivalLane="goal_0" arrivalPos="498.34" arrivalSpeed="12.79" duration="213.00" routeLength="2274.60" waitingTime="0.00" waitingCount="0" stopTime="0.00" timeLoss="39.58" rerouteNo="1" devices="tripinfo_0.27 routing_0.27" vType="DEFAULT_VEHTYPE" speedFactor="0.95" vaporized=""/>
    <tripinfo id="0.30" depart="91.00" departLane="start_0" departPos="5.10" departSpeed="0.00" departDelay="61.00" arrival="296.00" arrivalLane="goal_1" arrivalPos="498.34" arrivalSpeed="15.49" duration="205.00" routeLength="2274.60" waitingTime="0.00" waitingCount="0" stopTime="0.00" timeLoss="64.72" rerouteNo="1" devices="tripinfo_0.30 routing_0.30" vType="DEFAULT_VEHTYPE" speedFactor="1.18" vaporized=""/>
    <tripinfo id="0.31" depart="94.00" departLane="start_0" departPos="5.10" departSpeed="0.00" departDelay="63.00" arrival="298.00" arrivalLane="goal_1" arrivalPos="498.34" arrivalSpeed="15.32" duration="204.00" routeLength="2274.60" waitingTime="0.00" waitingCount="0" stopTime="0.00" timeLoss="61.25" rerouteNo="1" devices="tripinfo_0.31 routing_0.31" vType="DEFAULT_VEHTYPE" speedFactor="1.15" vaporized=""/>
    <tripinfo id="0.29" depart="88.00" departLane="start_0" departPos="5.10" departSpeed="0.00" departDelay="59.00" arrival="299.00" arrivalLane="goal_0" arrivalPos="498.34" arrivalSpeed="12.73" duration="211.00" routeLength="2274.60" waitingTime="0.00" waitingCount="0" stopTime="0.00" timeLoss="33.92" rerouteNo="1" devices="tripinfo_0.29 routing_0.29" vType="DEFAULT_VEHTYPE" speedFactor="0.93" vaporized=""/>
    <tripinfo id="0.33" depart="100.00" departLane="start_0" departPos="5.10" departSpeed="0.00" departDelay="67.00" arrival="300.00" arrivalLane="goal_1" arrivalPos="498.34" arrivalSpeed="16.14" duration="200.00" routeLength="2274.60" waitingTime="0.00" waitingCount="0" stopTime="0.00" timeLoss="58.99" rerouteNo="1" devices="tripinfo_0.33 routing_0.33" vType="DEFAULT_VEHTYPE" speedFactor="1.17" vaporized=""/>
    <tripinfo id="0.32" depart="97.00" departLane="start_0" departPos="5.10" departSpeed="0.00" departDelay="65.00" arrival="302.00" arrivalLane="goal_0" arrivalPos="498.34" arrivalSpeed="13.39" duration="205.00" routeLength="2274.60" waitingTime="0.00" waitingCount="0" stopTime="0.00" timeLoss="40.68" rerouteNo="1" devices="tripinfo_0.32 routing_0.32" vType="DEFAULT_VEHTYPE" speedFactor="1.01" vaporized=""/>
    <tripinfo id="0.34" depart="103.00" departLane="start_0" departPos="5.10" departSpeed="0.00" departDelay="69.00" arrival="306.00" arrivalLane="goal_0" arrivalPos="498.34" arrivalSpeed="13.48" duration="203.00" routeLength="2274.60" waitingTime="0.00" waitingCount="0" stopTime="0.00" timeLoss="37.87" rerouteNo="1" devices="tripinfo_0.34 routing_0.34" vType="DEFAULT_VEHTYPE" speedFactor="0.99" vaporized=""/>
    <tripinfo id="0.35" depart="106.00" departLane="start_0" departPos="5.10" departSpeed="0.00" departDelay="71.00" arrival="308.00" arrivalLane="goal_0" arrivalPos="498.34" arrivalSpeed="13.93" duration="202.00" routeLength="2274.60" waitingTime="0.00" waitingCount="0" stopTime="0.00" timeLoss="40.98" rerouteNo="1" devices="tripinfo_0.35 routing_0.35" vType="DEFAULT_VEHTYPE" speedFactor="1.02" vaporized=""/>
    <tripinfo id="0.37" depart="112.00" departLane="start_0" departPos="5.10" departSpeed="0.00" departDelay="75.00" arrival="312.00" arrivalLane="goal_1" arrivalPos="498.34" arrivalSpeed="15.69" duration="200.00" routeLength="2274.60" waitingTime="0.00" waitingCount="0" stopTime="0.00" timeLoss="60.17" rerouteNo="1" devices="tripinfo_0.37 routing_0.37" vType="DEFAULT_VEHTYPE" speedFactor="1.18" vaporized=""/>
    <tripinfo id="0.36" depart="109.00" departLane="start_0" departPos="5.10" departSpeed="0.00" departDelay="73.00" arrival="315.00" arrivalLane="goal_0" arrivalPos="498.34" arrivalSpeed="12.62" duration="206.00" routeLength="2274.60" waitingTime="0.00" waitingCount="0" stopTime="0.00" timeLoss="37.10" rerouteNo="1" devices="tripinfo_0.36 routing_0.36" vType="DEFAULT_VEHTYPE" speedFactor="0.97" vaporized=""/>
    <tripinfo id="0.38" depart="116.00" departLane="start_0" departPos="5.10" departSpeed="0.00" departDelay="78.00" arrival="315.00" arrivalLane="goal_1" arrivalPos="498.34" arrivalSpeed="14.47" duration="199.00" routeLength="2274.60" waitingTime="0.00" waitingCount="0" stopTime="0.00" timeLoss="50.09" rerouteNo="1" devices="tripinfo_0.38 routing_0.38" vType="DEFAULT_VEHTYPE" speedFactor="1.10" vaporized=""/>
    <tripinfo id="0.40" depart="122.00" departLane="start_0" departPos="5.10" departSpeed="0.00" departDelay="82.00" arrival="330.00" arrivalLane="goal_0" arrivalPos="498.34" arrivalSpeed="13.15" duration="208.00" routeLength="2274.60" waitingTime="0.00" waitingCount="0" stopTime="0.00" timeLoss="48.81" rerouteNo="1" devices="tripinfo_0.40 routing_0.40" vType="DEFAULT_VEHTYPE" speedFactor="1.03" vaporized=""/>
    <tripinfo id="0.39" depart="119.00" departLane="start_0" departPos="5.10" departSpeed="0.00" departDelay="80.00" arrival="332.00" arrivalLane="goal_0" arrivalPos="498.34" arrivalSpeed="11.84" duration="213.00" routeLength="2274.60" waitingTime="0.00" waitingCount="0" stopTime="0.00" timeLoss="29.79" rerouteNo="1" devices="tripinfo_0.39 routing_0.39" vType="DEFAULT_VEHTYPE" speedFactor="0.90" vaporized=""/>
    <tripinfo id="0.42" depart="128.00" departLane="start_0" departPos="5.10" departSpeed="0.00" departDelay="86.00" arrival="333.00" arrivalLane="goal_1" arrivalPos="498.34" arrivalSpeed="14.74" duration="205.00" routeLength="2274.60" waitingTime="0.00" waitingCount="0" stopTime="0.00" timeLoss="54.29" rerouteNo="1" devices="tripinfo_0.42 routing_0.42" vType="DEFAULT_VEHTYPE" speedFactor="1.09" vaporized=""/>
    <tripinfo id="0.41" depart="125.00" departLane="start_0" departPos="5.10" departSpeed="0.00" departDelay="84.00" arrival="334.00" arrivalLane="goal_0" arrivalPos="498.34" arrivalSpeed="12.02" duration="209.00" routeLength="2274.60" waitingTime="0.00" waitingCount="0" stopTime="0.00" timeLoss="37.40" rerouteNo="1" devices="tripinfo_0.41 routing_0.41" vType="DEFAULT_VEHTYPE" speedFactor="0.96" vaporized=""/>
    <tripinfo id="0.43" depart="131.00" departLane="start_0" departPos="5.10" departSpeed="0.00" departDelay="88.00" arrival="336.00" arrivalLane="goal_0" arrivalPos="498.34" arrivalSpeed="14.11" duration="205.00" routeLength="2274.60" waitingTime="0.00" waitingCount="0" stopTime="0.00" timeLoss="46.40" rerouteNo="1" devices="tripinfo_0.43 routing_0.43" vType="DEFAULT_VEHTYPE" speedFactor="1.04" vaporized=""/>
    <tripinfo id="0.44" depart="134.00" departLane="start_0" departPos="5.10" departSpeed="0.00" departDelay="90.00" arrival="338.00" arrivalLane="goal_0" arrivalPos="498.34" arrivalSpeed="13.83" duration="204.00" routeLength="2274.60" waitingTime="0.00" waitingCount="0" stopTime="0.00" timeLoss="45.56" rerouteNo="1" devices="tripinfo_0.44 routing_0.44" vType="DEFAULT_VEHTYPE" speedFactor="1.04" vaporized=""/>
    <tripinfo id="0.45" depart="137.00" departLane="start_0" departPos="5.10" departSpeed="0.00" departDelay="92.00" arrival="338.00" arrivalLane="goal_1" arrivalPos="498.34" arrivalSpeed="14.43" duration="201.00" routeLength="2274.60" waitingTime="0.00" waitingCount="0" stopTime="0.00" timeLoss="48.93" rerouteNo="1" devices="tripinfo_0.45 routing_0.45" vType="DEFAULT_VEHTYPE" speedFactor="1.09" vaporized=""/>
    <tripinfo id="0.46" depart="140.00" departLane="start_0" departPos="5.10" departSpeed="0.00" departDelay="94.00" arrival="345.00" arrivalLane="goal_0" arrivalPos="498.34" arrivalSpeed="12.74" duration="205.00" routeLength="2274.60" waitingTime="0.00" waitingCount="0" stopTime="0.00" timeLoss="38.95" rerouteNo="1" devices="tripinfo_0.46 routing_0.46" vType="DEFAULT_VEHTYPE" speedFactor="1.00" vaporized=""/>
    <tripinfo id="0.54" depart="164.00" departLane="start_0" departPos="5.10" departSpeed="0.00" departDelay="110.00" arrival="353.00" arrivalLane="goal_0" arrivalPos="498.34" arrivalSpeed="13.36" duration="189.00" routeLength="2405.76" waitingTime="0.00" waitingCount="0" stopTime="0.00" timeLoss="16.15" rerouteNo="2" devices="tripinfo_0.54 routing_0.54" vType="DEFAULT_VEHTYPE" speedFactor="1.00" vaporized=""/>
    <tripinfo id="0.47" depart="143.00" departLane="start_0" departPos="5.10" departSpeed="0.00" departDelay="96.00" arrival="358.00" arrivalLane="goal_0" arrivalPos="498.34" arrivalSpeed="12.17" duration="215.00" routeLength="2274.60" waitingTime="0.00" waitingCount="0" stopTime="0.00" timeLoss="32.13" rerouteNo="1" devices="tripinfo_0.47 routing_0.47" vType="DEFAULT_VEHTYPE" speedFactor="0.90" vaporized=""/>
    <tripinfo id="0.57" depart="172.00" departLane="start_0" departPos="5.10" departSpeed="0.00" departDelay="115.00" arrival="359.00" arrivalLane="goal_1" arrivalPos="498.34" arrivalSpeed="15.64" duration="187.00" routeLength="2405.76" waitingTime="0.00" waitingCount="0" stopTime="0.00" timeLoss="34.18" rerouteNo="2" devices="tripinfo_0.57 routing_0.57" vType="DEFAULT_VEHTYPE" speedFactor="1.14" vaporized=""/>
    <tripinfo id="0.55" depart="167.00" departLane="start_0" departPos="5.10" departSpeed="0.00" departDelay="112.00" arrival="360.00" arrivalLane="goal_0" arrivalPos="498.34" arrivalSpeed="13.58" duration="193.00" routeLength="2405.76" waitingTime="0.00" waitingCount="0" stopTime="0.00" timeLoss="17.34" rerouteNo="2" devices="tripinfo_0.55 routing_0.55" vType="DEFAULT_VEHTYPE" speedFactor="1.00" vaporized=""/>
    <tripinfo id="0.58" depart="175.00" departLane="start_0" departPos="5.10" departSpeed="0.00" departDelay="117.00" arrival="362.00" arrivalLane="goal_0" arrivalPos="498.34" arrivalSpeed="13.45" duration="187.00" routeLength="2405.76" waitingTime="0.00" waitingCount="0" stopTime="0.00" timeLoss="17.61" rerouteNo="2" devices="tripinfo_0.58 routing_0.58" vType="DEFAULT_VEHTYPE" speedFactor="1.02" vaporized=""/>
    <tripinfo id="0.48" depart="146.00" departLane="start_0" departPos="5.10" departSpeed="0.00" departDelay="98.00" arrival="364.00" arrivalLane="goal_1" arrivalPos="498.34" arrivalSpeed="11.17" duration="218.00" routeLength="2274.60" waitingTime="0.00" waitingCount="0" stopTime="0.00" timeLoss="29.93" rerouteNo="1" devices="tripinfo_0.48 routing_0.48" vType="DEFAULT_VEHTYPE" speedFactor="0.88" vaporized=""/>
    <tripinfo id="0.61" depart="184.00" departLane="start_0" departPos="5.10" departSpeed="0.00" departDelay="123.00" arrival="364.00" arrivalLane="goal_0" arrivalPos="498.34" arrivalSpeed="15.41" duration="180.00" routeLength="2405.76" waitingTime="0.00" waitingCount="0" stopTime="0.00" timeLoss="24.64" rerouteNo="2" devices="tripinfo_0.61 routing_0.61" vType="DEFAULT_VEHTYPE" speedFactor="1.12" vaporized=""/>
    <tripinfo id="0.60" depart="181.00" departLane="start_0" departPos="5.10" departSpeed="0.00" departDelay="121.00" arrival="366.00" arrivalLane="goal_1" arrivalPos="498.34" arrivalSpeed="14.81" duration="185.00" routeLength="2405.76" waitingTime="0.00" waitingCount="0" stopTime="0.00" timeLoss="23.67" rerouteNo="2" devices="tripinfo_0.60 routing_0.60" vType="DEFAULT_VEHTYPE" speedFactor="1.08" vaporized=""/>
    <tripinfo id="0.51" depart="155.00" departLane="start_0" departPos="5.10" departSpeed="0.00" departDelay="104.00" arrival="367.00" arrivalLane="goal_1" arrivalPos="498.34" arrivalSpeed="15.27" duration="212.00" routeLength="2274.60" waitingTime="0.00" waitingCount="0" stopTime="0.00" timeLoss="70.72" rerouteNo="1" devices="tripinfo_0.51 routing_0.51" vType="DEFAULT_VEHTYPE" speedFactor="1.17" vaporized=""/>
    <tripinfo id="0.49" depart="149.00" departLane="start_0" departPos="5.10" departSpeed="0.00" departDelay="100.00" arrival="370.00" arrivalLane="goal_0" arrivalPos="498.34" arrivalSpeed="11.35" duration="221.00" routeLength="2274.60" waitingTime="0.00" waitingCount="0" stopTime="0.00" timeLoss="26.95" rerouteNo="1" devices="tripinfo_0.49 routing_0.49" vType="DEFAULT_VEHTYPE" speedFactor="0.85" vaporized=""/>
    <tripinfo id="0.52" depart="158.00" departLane="start_0" departPos="5.10" departSpeed="0.00" departDelay="106.00" arrival="371.00" arrivalLane="goal_1" arrivalPos="498.34" arrivalSpeed="14.04" duration="213.00" routeLength="2274.60" waitingTime="0.00" waitingCount="0" stopTime="0.00" timeLoss="51.44" rerouteNo="1" devices="tripinfo_0.52 routing_0.52" vType="DEFAULT_VEHTYPE" speedFactor="1.02" vaporized=""/>
    <tripinfo id="0.53" depart="161.00" departLane="start_0" departPos="5.10" departSpeed="0.00" departDelay="108.00" arrival="373.00" arrivalLane="goal_1" arrivalPos="498.34" arrivalSpeed="14.32" duration="212.00" routeLength="2274.60" waitingTime="0.00" waitingCount="0" stopTime="0.00" timeLoss="62.17" rerouteNo="1" devices="tripinfo_0.53 routing_0.53" vType="DEFAULT_VEHTYPE" speedFactor="1.10" vaporized=""/>
    <tripinfo id="0.50" depart="152.00" departLane="start_0" departPos="5.10" departSpeed="0.00" departDelay="102.00" arrival="374.00" arrivalLane="goal_0" arrivalPos="498.34" arrivalSpeed="10.69" duration="222.00" routeLength="2274.60" waitingTime="0.00" waitingCount="0" stopTime="0.00" timeLoss="29.07" rerouteNo="1" devices="tripinfo_0.50 routing_0.50" vType="DEFAULT_VEHTYPE" speedFactor="0.85" vaporized=""/>
    <tripinfo id="0.62" depart="187.00" departLane="start_0" departPos="5.10" departSpeed="0.00" departDelay="125.00" arrival="376.00" arrivalLane="goal_0" arrivalPos="498.34" arrivalSpeed="13.25" duration="189.00" routeLength="2405.76" waitingTime="0.00" waitingCount="0" stopTime="0.00" timeLoss="17.50" rerouteNo="2" devices="tripinfo_0.62 routing_0.62" vType="DEFAULT_VEHTYPE" speedFactor="1.02" vaporized=""/>
    <tripinfo id="0.56" depart="170.00" departLane="start_0" departPos="5.10" departSpeed="0.00" departDelay="114.00" arrival="382.00" arrivalLane="goal_0" arrivalPos="498.34" arrivalSpeed="12.47" duration="212.00" routeLength="2274.60" waitingTime="0.00" waitingCount="0" stopTime="0.00" timeLoss="28.96" rerouteNo="1" devices="tripinfo_0.56 routing_0.56" vType="DEFAULT_VEHTYPE" speedFactor="0.90" vaporized=""/>
    <tripinfo id="0.59" depart="178.00" departLane="start_0" departPos="5.10" departSpeed="0.00" departDelay="119.00" arrival="382.00" arrivalLane="goal_1" arrivalPos="498.34" arrivalSpeed="12.66" duration="204.00" routeLength="2274.60" waitingTime="0.00" waitingCount="0" stopTime="0.00" timeLoss="33.03" rerouteNo="1" devices="tripinfo_0.59 routing_0.59" vType="DEFAULT_VEHTYPE" speedFactor="0.97" vaporized=""/>
    <tripinfo id="0.63" depart="190.00" departLane="start_0" departPos="5.10" departSpeed="0.00" departDelay="127.00" arrival="384.00" arrivalLane="goal_1" arrivalPos="498.34" arrivalSpeed="12.97" duration="194.00" routeLength="2405.76" waitingTime="0.00" waitingCount="0" stopTime="0.00" timeLoss="16.60" rerouteNo="2" devices="tripinfo_0.63 routing_0.63" vType="DEFAULT_VEHTYPE" speedFactor="0.99" vaporized=""/>
    <tripinfo id="0.64" depart="193.00" departLane="start_0" departPos="5.10" departSpeed="0.00" departDelay="129.00" arrival="386.00" arrivalLane="goal_0" arrivalPos="498.34" arrivalSpeed="12.99" duration="193.00" routeLength="2274.60" waitingTime="0.00" waitingCount="0" stopTime="0.00" timeLoss="16.95" rerouteNo="1" devices="tripinfo_0.64 routing_0.64" vType="DEFAULT_VEHTYPE" speedFactor="0.94" vaporized=""/>
    <tripinfo id="0.68" depart="204.00" departLane="start_0" departPos="5.10" departSpeed="0.00" departDelay="136.00" arrival="388.00" arrivalLane="goal_0" arrivalPos="498.34" arrivalSpeed="13.91" duration="184.00" routeLength="2405.76" waitingTime="0.00" waitingCount="0" stopTime="0.00" timeLoss="16.37" rerouteNo="2" devices="tripinfo_0.68 routing_0.68" vType="DEFAULT_VEHTYPE" speedFactor="1.04" vaporized=""/>
    <tripinfo id="0.69" depart="207.00" departLane="start_0" departPos="5.10" departSpeed="0.00" departDelay="138.00" arrival="395.00" arrivalLane="goal_0" arrivalPos="498.34" arrivalSpeed="13.25" duration="188.00" routeLength="2405.76" waitingTime="0.00" waitingCount="0" stopTime="0.00" timeLoss="16.93" rerouteNo="2" devices="tripinfo_0.69 routing_0.69" vType="DEFAULT_VEHTYPE" speedFactor="1.02" vaporized=""/>
    <tripinfo id="0.65" depart="195.00" departLane="start_0" departPos="5.10" departSpeed="0.00" departDelay="130.00" arrival="399.00" arrivalLane="goal_0" arrivalPos="498.34" arrivalSpeed="11.06" duration="204.00" routeLength="2274.60" waitingTime="0.00" waitingCount="0" stopTime="0.00" timeLoss="16.93" rerouteNo="1" devices="tripinfo_0.65 routing_0.65" vType="DEFAULT_VEHTYPE" speedFactor="0.88" vaporized=""/>
    <tripinfo id="0.66" depart="198.00" departLane="start_0" departPos="5.10" departSpeed="0.00" departDelay="132.00" arrival="400.00" arrivalLane="goal_1" arrivalPos="498.34" arrivalSpeed="11.44" duration="202.00" routeLength="2274.60" waitingTime="0.00" waitingCount="0" stopTime="0.00" timeLoss="19.98" rerouteNo="1" devices="tripinfo_0.66 routing_0.66" vType="DEFAULT_VEHTYPE" speedFactor="0.91" vaporized=""/>
    <tripinfo id="0.70" depart="210.00" departLane="start_0" departPos="5.10" departSpeed="0.00" departDelay="140.00" arrival="401.00" arrivalLane="goal_0" arrivalPos="498.34" arrivalSpeed="13.11" duration="191.00" routeLength="2405.76" waitingTime="0.00" waitingCount="0" stopTime="0.00" timeLoss="19.52" rerouteNo="2" devices="tripinfo_0.70 routing_0.70" vType="DEFAULT_VEHTYPE" speedFactor="1.02" vaporized=""/>