<?xml version="1.0" encoding="UTF-8"?>

<!-- generated on 2021-09-29 09:58:52 by Eclipse SUMO GUI Version 1.9.2
<configuration xmlns:xsi="http://www.w3.org/2001/XMLSchema-instance" xsi:noNamespaceSchemaLocation="http://sumo.dlr.de/xsd/sumoConfiguration.xsd">

    <input>
        <net-file value="shortlong.net.xml"/>
        <route-files value="shortlong.rou.xml"/>
        <additional-files value="additional.xml"/>
    </input>

    <output>
        <tripinfo-output value="tripinfo.xml"/>
    </output>

    <time>
        <begin value="0"/>
        <end value="10000"/>
    </time>

    <processing>
        <time-to-teleport value="-1"/>
    </processing>

    <traci_server>
        <remote-port value="49567"/>
    </traci_server>

</configuration>
-->

<tripinfos xmlns:xsi="http://www.w3.org/2001/XMLSchema-instance" xsi:noNamespaceSchemaLocation="http://sumo.dlr.de/xsd/tripinfo_file.xsd">
    <tripinfo id="0.0" depart="0.00" departLane="start_0" departPos="5.10" departSpeed="0.00" departDelay="0.00" arrival="181.00" arrivalLane="goal_0" arrivalPos="498.34" arrivalSpeed="14.42" duration="181.00" routeLength="2405.76" waitingTime="0.00" waitingCount="0" stopTime="0.00" timeLoss="16.80" rerouteNo="5" devices="tripinfo_0.0 routing_0.0" vType="DEFAULT_VEHTYPE" speedFactor="1.06" vaporized=""/>
    <tripinfo id="0.2" depart="6.00" departLane="start_0" departPos="5.10" departSpeed="0.00" departDelay="4.00" arrival="184.00" arrivalLane="goal_0" arrivalPos="498.34" arrivalSpeed="13.54" duration="178.00" routeLength="2274.60" waitingTime="0.00" waitingCount="0" stopTime="0.00" timeLoss="15.48" rerouteNo="5" devices="tripinfo_0.2 routing_0.2" vType="DEFAULT_VEHTYPE" speedFactor="1.01" vaporized=""/>
    <tripinfo id="0.6" depart="18.00" departLane="start_0" departPos="5.10" departSpeed="0.00" departDelay="12.00" arrival="192.00" arrivalLane="goal_0" arrivalPos="498.34" arrivalSpeed="14.15" duration="174.00" routeLength="2274.60" waitingTime="0.00" waitingCount="0" stopTime="0.00" timeLoss="16.96" rerouteNo="5" devices="tripinfo_0.6 routing_0.6" vType="DEFAULT_VEHTYPE" speedFactor="1.05" vaporized=""/>
    <tripinfo id="0.3" depart="9.00" departLane="start_0" departPos="5.10" departSpeed="0.00" departDelay="6.00" arrival="202.00" arrivalLane="goal_0" arrivalPos="498.34" arrivalSpeed="13.97" duration="193.00" routeLength="2405.76" waitingTime="0.00" waitingCount="0" stopTime="0.00" timeLoss="31.88" rerouteNo="5" devices="tripinfo_0.3 routing_0.3" vType="DEFAULT_VEHTYPE" speedFactor="1.08" vaporized=""/>
    <tripinfo id="0.1" depart="3.00" departLane="start_0" departPos="5.10" departSpeed="0.00" departDelay="2.00" arrival="205.00" arrivalLane="goal_0" arrivalPos="498.34" arrivalSpeed="12.23" duration="202.00" routeLength="2405.76" waitingTime="0.00" waitingCount="0" stopTime="0.00" timeLoss="16.59" rerouteNo="6" devices="tripinfo_0.1 routing_0.1" vType="DEFAULT_VEHTYPE" speedFactor="0.94" vaporized=""/>
    <tripinfo id="0.10" depart="30.00" departLane="start_0" departPos="5.10" departSpeed="0.00" departDelay="20.00" arrival="206.00" arrivalLane="goal_1" arrivalPos="498.34" arrivalSpeed="14.07" duration="176.00" routeLength="2405.76" waitingTime="0.00" waitingCount="0" stopTime="0.00" timeLoss="16.26" rerouteNo="4" devices="tripinfo_0.10 routing_0.10" vType="DEFAULT_VEHTYPE" speedFactor="1.09" vaporized=""/>
    <tripinfo id="0.4" depart="12.00" departLane="start_0" departPos="5.10" departSpeed="0.00" departDelay="8.00" arrival="207.00" arrivalLane="goal_0" arrivalPos="498.34" arrivalSpeed="13.58" duration="195.00" routeLength="2405.76" waitingTime="0.00" waitingCount="0" stopTime="0.00" timeLoss="24.77" rerouteNo="5" devices="tripinfo_0.4 routing_0.4" vType="DEFAULT_VEHTYPE" speedFactor="1.03" vaporized=""/>
    <tripinfo id="0.12" depart="36.00" departLane="start_0" departPos="5.10" departSpeed="0.00" departDelay="24.00" arrival="219.00" arrivalLane="goal_0" arrivalPos="498.34" arrivalSpeed="13.69" duration="183.00" routeLength="2405.76" waitingTime="0.00" waitingCount="0" stopTime="0.00" timeLoss="17.03" rerouteNo="5" devices="tripinfo_0.12 routing_0.12" vType="DEFAULT_VEHTYPE" speedFactor="1.05" vaporized=""/>
    <tripinfo id="0.5" depart="15.00" departLane="start_0" departPos="5.10" departSpeed="0.00" departDelay="10.00" arrival="232.00" arrivalLane="goal_0" arrivalPos="498.34" arrivalSpeed="10.62" duration="217.00" routeLength="2274.60" waitingTime="0.00" waitingCount="0" stopTime="0.00" timeLoss="18.76" rerouteNo="6" devices="tripinfo_0.5 routing_0.5" vType="DEFAULT_VEHTYPE" speedFactor="0.83" vaporized=""/>
    <tripinfo id="0.7" depart="21.00" departLane="start_0" departPos="5.10" departSpeed="0.00" departDelay="14.00" arrival="232.00" arrivalLane="goal_1" arrivalPos="498.34" arrivalSpeed="11.99" duration="211.00" routeLength="2274.60" waitingTime="0.00" waitingCount="0" stopTime="0.00" timeLoss="24.83" rerouteNo="6" devices="tripinfo_0.7 routing_0.7" vType="DEFAULT_VEHTYPE" speedFactor="0.89" vaporized=""/>
    <tripinfo id="0.8" depart="24.00" departLane="start_0" departPos="5.10" departSpeed="0.00" departDelay="16.00" arrival="233.00" arrivalLane="goal_1" arrivalPos="498.34" arrivalSpeed="12.35" duration="209.00" routeLength="2274.60" waitingTime="0.00" waitingCount="0" stopTime="0.00" timeLoss="33.37" rerouteNo="6" devices="tripinfo_0.8 routing_0.8" vType="DEFAULT_VEHTYPE" speedFactor="0.94" vaporized=""/>
    <tripinfo id="0.19" depart="57.00" departLane="start_0" departPos="5.10" departSpeed="0.00" departDelay="38.00" arrival="234.00" arrivalLane="goal_0" arrivalPos="498.34" arrivalSpeed="14.94" duration="177.00" routeLength="2405.76" waitingTime="0.00" waitingCount="0" stopTime="0.00" timeLoss="25.84" rerouteNo="4" devices="tripinfo_0.19 routing_0.19" vType="DEFAULT_VEHTYPE" speedFactor="1.16" vaporized=""/>
    <tripinfo id="0.11" depart="33.00" departLane="start_0" departPos="5.10" departSpeed="0.00" departDelay="22.00" arrival="235.00" arrivalLane="goal_1" arrivalPos="498.34" arrivalSpeed="13.09" duration="202.00" routeLength="2274.60" waitingTime="0.00" waitingCount="0" stopTime="0.00" timeLoss="41.55" rerouteNo="5" devices="tripinfo_0.11 routing_0.11" vType="DEFAULT_VEHTYPE" speedFactor="1.03" vaporized=""/>
    <tripinfo id="0.13" depart="39.00" departLane="start_0" departPos="5.10" departSpeed="0.00" departDelay="26.00" arrival="237.00" arrivalLane="goal_1" arrivalPos="498.34" arrivalSpeed="15.29" duration="198.00" routeLength="2274.60" waitingTime="0.00" waitingCount="0" stopTime="0.00" timeLoss="50.38" rerouteNo="5" devices="tripinfo_0.13 routing_0.13" vType="DEFAULT_VEHTYPE" speedFactor="1.12" vaporized=""/>
    <tripinfo id="0.9" depart="27.00" departLane="start_0" departPos="5.10" departSpeed="0.00" departDelay="18.00" arrival="239.00" arrivalLane="goal_0" arrivalPos="498.34" arrivalSpeed="11.19" duration="212.00" routeLength="2274.60" waitingTime="0.00" waitingCount="0" stopTime="0.00" timeLoss="19.70" rerouteNo="5" devices="tripinfo_0.9 routing_0.9" vType="DEFAULT_VEHTYPE" speedFactor="0.86" vaporized=""/>
    <tripinfo id="0.14" depart="42.00" departLane="start_0" departPos="5.10" departSpeed="0.00" departDelay="28.00" arrival="239.00" arrivalLane="goal_1" arrivalPos="498.34" arrivalSpeed="13.07" duration="197.00" routeLength="2274.60" waitingTime="0.00" waitingCount="0" stopTime="0.00" timeLoss="30.61" rerouteNo="5" devices="tripinfo_0.14 routing_0.14" vType="DEFAULT_VEHTYPE" speedFactor="0.99" vaporized=""/>
    <tripinfo id="0.15" depart="44.00" departLane="start_0" departPos="5.10" departSpeed="0.00" departDelay="29.00" arrival="245.00" arrivalLane="goal_0" arrivalPos="498.34" arrivalSpeed="11.77" duration="201.00" routeLength="2274.60" waitingTime="0.00" waitingCount="0" stopTime="0.00" timeLoss="22.98" rerouteNo="5" devices="tripinfo_0.15 routing_0.15" vType="DEFAULT_VEHTYPE" speedFactor="0.93" vaporized=""/>
    <tripinfo id="0.16" depart="47.00" departLane="start_0" departPos="5.10" departSpeed="0.00" departDelay="31.00" arrival="252.00" arrivalLane="goal_0" arrivalPos="498.34" arrivalSpeed="11.92" duration="205.00" routeLength="2274.60" waitingTime="0.00" waitingCount="0" stopTime="0.00" timeLoss="18.03" rerouteNo="6" devices="tripinfo_0.16 routing_0.16" vType="DEFAULT_VEHTYPE" speedFactor="0.88" vaporized=""/>
    <tripinfo id="0.17" depart="51.00" departLane="start_0" departPos="5.10" departSpeed="0.00" departDelay="34.00" arrival="252.00" arrivalLane="goal_1" arrivalPos="498.34" arrivalSpeed="11.98" duration="201.00" routeLength="2274.60" waitingTime="0.00" waitingCount="0" stopTime="0.00" timeLoss="25.91" rerouteNo="5" devices="tripinfo_0.17 routing_0.17" vType="DEFAULT_VEHTYPE" speedFactor="0.94" vaporized=""/>
    <tripinfo id="0.21" depart="63.00" departLane="start_0" departPos="5.10" departSpeed="0.00" departDelay="42.00" arrival="253.00" arrivalLane="goal_1" arrivalPos="498.34" arrivalSpeed="13.95" duration="190.00" routeLength="2274.60" waitingTime="0.00" waitingCount="0" stopTime="0.00" timeLoss="27.34" rerouteNo="5" devices="tripinfo_0.21 routing_0.21" vType="DEFAULT_VEHTYPE" speedFactor="1.01" vaporized=""/>
    <tripinfo id="0.18" depart="54.00" departLane="start_0" departPos="5.10" departSpeed="0.00" departDelay="36.00" arrival="257.00" arrivalLane="goal_0" arrivalPos="498.34" arrivalSpeed="12.87" duration="203.00" routeLength="2405.76" waitingTime="0.00" waitingCount="0" stopTime="0.00" timeLoss="16.65" rerouteNo="5" devices="tripinfo_0.18 routing_0.18" vType="DEFAULT_VEHTYPE" speedFactor="0.94" vaporized=""/>
    <tripinfo id="0.20" depart="60.00" departLane="start_0" departPos="5.10" departSpeed="0.00" departDelay="40.00" arrival="257.00" arrivalLane="goal_1" arrivalPos="498.34" arrivalSpeed="14.07" duration="197.00" routeLength="2405.76" waitingTime="0.00" waitingCount="0" stopTime="0.00" timeLoss="25.14" rerouteNo="5" devices="tripinfo_0.20 routing_0.20" vType="DEFAULT_VEHTYPE" speedFactor="1.02" vaporized=""/>
    <tripinfo id="0.22" depart="66.00" departLane="start_0" departPos="5.10" departSpeed="0.00" departDelay="44.00" arrival="262.00" arrivalLane="goal_0" arrivalPos="498.34" arrivalSpeed="12.28" duration="196.00" routeLength="2405.76" waitingTime="0.00" waitingCount="0" stopTime="0.00" timeLoss="17.30" rerouteNo="6" devices="tripinfo_0.22 routing_0.22" vType="DEFAULT_VEHTYPE" speedFactor="0.98" vaporized=""/>
    <tripinfo id="0.23" depart="69.00" departLane="start_0" departPos="5.10" departSpeed="0.00" departDelay="46.00" arrival="282.00" arrivalLane="goal_0" arrivalPos="498.34" arrivalSpeed="11.84" duration="213.00" routeLength="2405.76" waitingTime="0.00" waitingCount="0" stopTime="0.00" timeLoss="16.96" rerouteNo="6" devices="tripinfo_0.23 routing_0.23" vType="DEFAULT_VEHTYPE" speedFactor="0.89" vaporized=""/>
    <tripinfo id="0.27" depart="81.00" departLane="start_0" departPos="5.10" departSpeed="0.00" departDelay="54.00" arrival="286.00" arrivalLane="goal_0" arrivalPos="498.34" arrivalSpeed="12.59" duration="205.00" routeLength="2274.60" waitingTime="0.00" waitingCount="0" stopTime="0.00" timeLoss="30.80" rerouteNo="5" devices="tripinfo_0.27 routing_0.27" vType="DEFAULT_VEHTYPE" speedFactor="0.95" vaporized=""/>
    <tripinfo id="0.30" depart="90.00" departLane="start_0" departPos="5.10" departSpeed="0.00" departDelay="60.00" arrival="286.00" arrivalLane="goal_1" arrivalPos="498.34" arrivalSpeed="16.13" duration="196.00" routeLength="2274.60" waitingTime="0.00" waitingCount="0" stopTime="0.00" timeLoss="55.00" rerouteNo="5" devices="tripinfo_0.30 routing_0.30" vType="DEFAULT_VEHTYPE" speedFactor="1.18" vaporized=""/>
    <tripinfo id="0.24" depart="72.00" departLane="start_0" departPos="5.10" departSpeed="0.00" departDelay="48.00" arrival="290.00" arrivalLane="goal_0" arrivalPos="498.34" arrivalSpeed="10.61" duration="218.00" routeLength="2274.60" waitingTime="0.00" waitingCount="0" stopTime="0.00" timeLoss="18.41" rerouteNo="6" devices="tripinfo_0.24 routing_0.24" vType="DEFAULT_VEHTYPE" speedFactor="0.83" vaporized=""/>
    <tripinfo id="0.35" depart="105.00" departLane="start_0" departPos="5.10" departSpeed="0.00" departDelay="70.00" arrival="290.00" arrivalLane="goal_1" arrivalPos="498.34" arrivalSpeed="13.21" duration="185.00" routeLength="2274.60" waitingTime="0.00" waitingCount="0" stopTime="0.00" timeLoss="22.58" rerouteNo="5" devices="tripinfo_0.35 routing_0.35" vType="DEFAULT_VEHTYPE" speedFactor="1.02" vaporized=""/>
    <tripinfo id="0.33" depart="99.00" departLane="start_0" departPos="5.10" departSpeed="0.00" departDelay="66.00" arrival="291.00" arrivalLane="goal_1" arrivalPos="498.34" arrivalSpeed="15.80" duration="192.00" routeLength="2274.60" waitingTime="0.00" waitingCount="0" stopTime="0.00" timeLoss="51.44" rerouteNo="4" devices="tripinfo_0.33 routing_0.33" vType="DEFAULT_VEHTYPE" speedFactor="1.17" vaporized=""/>
    <tripinfo id="0.25" depart="75.00" departLane="start_0" departPos="5.10" departSpeed="0.00" departDelay="50.00" arrival="294.00" arrivalLane="goal_0" arrivalPos="498.34" arrivalSpeed="10.97" duration="219.00" routeLength="2405.76" waitingTime="0.00" waitingCount="0" stopTime="0.00" timeLoss="18.70" rerouteNo="5" devices="tripinfo_0.25 routing_0.25" vType="DEFAULT_VEHTYPE" speedFactor="0.87" vaporized=""/>
    <tripinfo id="0.36" depart="108.00" departLane="start_0" departPos="5.10" departSpeed="0.00" departDelay="72.00" arrival="294.00" arrivalLane="goal_1" arrivalPos="498.34" arrivalSpeed="12.63" duration="186.00" routeLength="2274.60" waitingTime="0.00" waitingCount="0" stopTime="0.00" timeLoss="16.82" rerouteNo="5" devices="tripinfo_0.36 routing_0.36" vType="DEFAULT_VEHTYPE" speedFactor="0.97" vaporized=""/>
    <tripinfo id="0.38" depart="114.00" departLane="start_0" departPos="5.10" departSpeed="0.00" departDelay="76.00" arrival="295.00" arrivalLane="goal_1" arrivalPos="498.34" arrivalSpeed="15.00" duration="181.00" routeLength="2274.60" waitingTime="0.00" waitingCount="0" stopTime="0.00" timeLoss="31.11" rerouteNo="5" devices="tripinfo_0.38 routing_0.38" vType="DEFAULT_VEHTYPE" speedFactor="1.10" vaporized=""/>
    <tripinfo id="0.26" depart="78.00" departLane="start_0" departPos="5.10" departSpeed="0.00" departDelay="52.00" arrival="296.00" arrivalLane="goal_0" arrivalPos="498.34" arrivalSpeed="12.49" duration="218.00" routeLength="2405.76" waitingTime="0.00" waitingCount="0" stopTime="0.00" timeLoss="27.08" rerouteNo="5" devices="tripinfo_0.26 routing_0.26" vType="DEFAULT_VEHTYPE" speedFactor="0.92" vaporized=""/>
    <tripinfo id="0.28" depart="84.00" departLane="start_0" departPos="5.10" departSpeed="0.00" departDelay="56.00" arrival="297.00" arrivalLane="goal_0" arrivalPos="498.34" arrivalSpeed="14.73" duration="213.00" routeLength="2405.76" waitingTime="0.00" waitingCount="0" stopTime="0.00" timeLoss="59.21" rerouteNo="4" devices="tripinfo_0.28 routing_0.28" vType="DEFAULT_VEHTYPE" speedFactor="1.13" vaporized=""/>
    <tripinfo id="0.31" depart="92.00" departLane="start_0" departPos="5.10" departSpeed="0.00" departDelay="61.00" arrival="297.00" arrivalLane="goal_1" arrivalPos="498.34" arrivalSpeed="15.78" duration="205.00" routeLength="2405.76" waitingTime="0.00" waitingCount="0" stopTime="0.00" timeLoss="52.87" rerouteNo="4" devices="tripinfo_0.31 routing_0.31" vType="DEFAULT_VEHTYPE" speedFactor="1.15" vaporized=""/>
    <tripinfo id="0.29" depart="87.00" departLane="start_0" departPos="5.10" departSpeed="0.00" departDelay="58.00" arrival="299.00" arrivalLane="goal_0" arrivalPos="498.34" arrivalSpeed="11.82" duration="212.00" routeLength="2405.76" waitingTime="0.00" waitingCount="0" stopTime="0.00" timeLoss="25.04" rerouteNo="5" devices="tripinfo_0.29 routing_0.29" vType="DEFAULT_VEHTYPE" speedFactor="0.93" vaporized=""/>
    <tripinfo id="0.37" depart="111.00" departLane="start_0" departPos="5.10" departSpeed="0.00" departDelay="74.00" arrival="299.00" arrivalLane="goal_1" arrivalPos="498.34" arrivalSpeed="16.29" duration="188.00" routeLength="2405.76" waitingTime="0.00" waitingCount="0" stopTime="0.00" timeLoss="40.19" rerouteNo="4" devices="tripinfo_0.37 routing_0.37" vType="DEFAULT_VEHTYPE" speedFactor="1.18" vaporized=""/>
    <tripinfo id="0.32" depart="96.00" departLane="start_0" departPos="5.10" departSpeed="0.00" departDelay="64.00" arrival="301.00" arrivalLane="goal_0" arrivalPos="498.34" arrivalSpeed="12.90" duration="205.00" routeLength="2405.76" waitingTime="0.00" waitingCount="0" stopTime="0.00" timeLoss="31.45" rerouteNo="5" devices="tripinfo_0.32 routing_0.32" vType="DEFAULT_VEHTYPE" speedFactor="1.01" vaporized=""/>
    <tripinfo id="0.34" depart="102.00" departLane="start_0" departPos="5.10" departSpeed="0.00" departDelay="68.00" arrival="302.00" arrivalLane="goal_1" arrivalPos="498.34" arrivalSpeed="13.06" duration="200.00" routeLength="2405.76" waitingTime="0.00" waitingCount="0" stopTime="0.00" timeLoss="24.83" rerouteNo="5" devices="tripinfo_0.34 routing_0.34" vType="DEFAULT_VEHTYPE" speedFactor="0.99" vaporized=""/>
    <tripinfo id="0.41" depart="123.00" departLane="start_0" departPos="5.10" departSpeed="0.00" departDelay="82.00" arrival="311.00" arrivalLane="goal_0" arrivalPos="498.34" arrivalSpeed="13.03" duration="188.00" routeLength="2274.60" waitingTime="0.00" waitingCount="0" stopTime="0.00" timeLoss="15.40" rerouteNo="6" devices="tripinfo_0.41 routing_0.41" vType="DEFAULT_VEHTYPE" speedFactor="0.96" vaporized=""/>
    <tripinfo id="0.43" depart="129.00" departLane="start_0" departPos="5.10" departSpeed="0.00" departDelay="86.00" arrival="311.00" arrivalLane="goal_1" arrivalPos="498.34" arrivalSpeed="13.45" duration="182.00" routeLength="2274.60" waitingTime="0.00" waitingCount="0" stopTime="0.00" timeLoss="23.30" rerouteNo="5" devices="tripinfo_0.43 routing_0.43" vType="DEFAULT_VEHTYPE" speedFactor="1.04" vaporized=""/>
    <tripinfo id="0.44" depart="132.00" departLane="start_0" departPos="5.10" departSpeed="0.00" departDelay="88.00" arrival="312.00" arrivalLane="goal_1" arrivalPos="498.34" arrivalSpeed="13.80" duration="180.00" routeLength="2274.60" waitingTime="0.00" waitingCount="0" stopTime="0.00" timeLoss="22.85" rerouteNo="5" devices="tripinfo_0.44 routing_0.44" vType="DEFAULT_VEHTYPE" speedFactor="1.04" vaporized=""/>
    <tripinfo id="0.45" depart="135.00" departLane="start_0" departPos="5.10" departSpeed="0.00" departDelay="90.00" arrival="314.00" arrivalLane="goal_0" arrivalPos="498.34" arrivalSpeed="15.08" duration="179.00" routeLength="2274.60" waitingTime="0.00" waitingCount="0" stopTime="0.00" timeLoss="27.41" rerouteNo="5" devices="tripinfo_0.45 routing_0.45" vType="DEFAULT_VEHTYPE" speedFactor="1.09" vaporized=""/>
    <tripinfo id="0.46" depart="138.00" departLane="start_0" departPos="5.10" departSpeed="0.00" departDelay="92.00" arrival="321.00" arrivalLane="goal_0" arrivalPos="498.34" arrivalSpeed="13.38" duration="183.00" routeLength="2274.60" waitingTime="0.00" waitingCount="0" stopTime="0.00" timeLoss="17.98" rerouteNo="5" devices="tripinfo_0.46 routing_0.46" vType="DEFAULT_VEHTYPE" speedFactor="1.00" vaporized=""/>
    <tripinfo id="0.40" depart="120.00" departLane="start_0" departPos="5.10" departSpeed="0.00" departDelay="80.00" arrival="325.00" arrivalLane="goal_0" arrivalPos="498.34" arrivalSpeed="13.03" duration="205.00" routeLength="2405.76" waitingTime="0.00" waitingCount="0" stopTime="0.00" timeLoss="35.37" rerouteNo="5" devices="tripinfo_0.40 routing_0.40" vType="DEFAULT_VEHTYPE" speedFactor="1.03" vaporized=""/>
    <tripinfo id="0.42" depart="126.00" departLane="start_0" departPos="5.10" departSpeed="0.00" departDelay="84.00" arrival="327.00" arrivalLane="goal_1" arrivalPos="498.34" arrivalSpeed="14.57" duration="201.00" routeLength="2405.76" waitingTime="0.00" waitingCount="0" stopTime="0.00" timeLoss="40.79" rerouteNo="5" devices="tripinfo_0.42 routing_0.42" vType="DEFAULT_VEHTYPE" speedFactor="1.09" vaporized=""/>
    <tripinfo id="0.39" depart="117.00" departLane="start_0" departPos="5.10" departSpeed="0.00" departDelay="78.00" arrival="328.00" arrivalLane="goal_0" arrivalPos="498.34" arrivalSpeed="11.98" duration="211.00" routeLength="2405.76" waitingTime="0.00" waitingCount="0" stopTime="0.00" timeLoss="17.18" rerouteNo="6" devices="tripinfo_0.39 routing_0.39" vType="DEFAULT_VEHTYPE" speedFactor="0.90" vaporized=""/>
    <tripinfo id="0.51" depart="153.00" departLane="start_0" departPos="5.10" departSpeed="0.00" departDelay="102.00" arrival="334.00" arrivalLane="goal_0" arrivalPos="498.34" arrivalSpeed="15.01" duration="181.00" routeLength="2274.60" waitingTime="0.00" waitingCount="0" stopTime="0.00" timeLoss="40.52" rerouteNo="5" devices="tripinfo_0.51 routing_0.51" vType="DEFAULT_VEHTYPE" speedFactor="1.17" vaporized=""/>
    <tripinfo id="0.47" depart="141.00" departLane="start_0" departPos="5.10" departSpeed="0.00" departDelay="94.00" arrival="341.00" arrivalLane="goal_0" arrivalPos="498.34" arrivalSpeed="12.38" duration="200.00" routeLength="2274.60" waitingTime="0.00" waitingCount="0" stopTime="0.00" timeLoss="16.43" rerouteNo="6" devices="tripinfo_0.47 routing_0.47" vType="DEFAULT_VEHTYPE" speedFactor="0.90" vaporized=""/>
    <tripinfo id="0.48" depart="144.00" departLane="start_0" departPos="5.10" departSpeed="0.00" departDelay="96.00" arrival="362.00" arrivalLane="goal_0" arrivalPos="498.34" arrivalSpeed="12.09" duration="218.00" routeLength="2405.76" waitingTime="0.00" waitingCount="0" stopTime="0.00" timeLoss="19.15" rerouteNo="6" devices="tripinfo_0.48 routing_0.48" vType="DEFAULT_VEHTYPE" speedFactor="0.88" vaporized=""/>
    <tripinfo id="0.50" depart="150.00" departLane="start_0" departPos="5.10" departSpeed="0.00" departDelay="100.00" arrival="362.00" arrivalLane="goal_1" arrivalPos="498.34" arrivalSpeed="11.01" duration="212.00" routeLength="2274.60" waitingTime="0.00" waitingCount="0" stopTime="0.00" timeLoss="18.86" rerouteNo="6" devices="tripinfo_0.50 routing_0.50" vType="DEFAULT_VEHTYPE" speedFactor="0.85" vaporized=""/>
    <tripinfo id="0.52" depart="156.00" departLane="start_0" departPos="5.10" departSpeed="0.00" departDelay="104.00" arrival="364.00" arrivalLane="goal_1" arrivalPos="498.34" arrivalSpeed="14.08" duration="208.00" routeLength="2274.60" waitingTime="0.00" waitingCount="0" stopTime="0.00" timeLoss="45.61" rerouteNo="5" devices="tripinfo_0.52 routing_0.52" vType="DEFAULT_VEHTYPE" speedFactor="1.02" vaporized=""/>
    <tripinfo id="0.57" depart="170.00" departLane="start_0" departPos="5.10" departSpeed="0.00" departDelay="113.00" arrival="364.00" arrivalLane="goal_0" arrivalPos="498.34" arrivalSpeed="15.46" duration="194.00" routeLength="2274.60" waitingTime="0.00" waitingCount="0" stopTime="0.00" timeLoss="50.12" rerouteNo="5" devices="tripinfo_0.57 routing_0.57" vType="DEFAULT_VEHTYPE" speedFactor="1.14" vaporized=""/>
    <tripinfo id="0.53" depart="159.00" departLane="start_0" departPos="5.10" departSpeed="0.00" departDelay="106.00" arrival="365.00" arrivalLane="goal_1" arrivalPos="498.34" arrivalSpeed="14.84" duration="206.00" routeLength="2274.60" waitingTime="0.00" waitingCount="0" stopTime="0.00" timeLoss="55.85" rerouteNo="5" devices="tripinfo_0.53 routing_0.53" vType="DEFAULT_VEHTYPE" speedFactor="1.10" vaporized=""/>
    <tripinfo id="0.61" depart="183.00" departLane="start_0" departPos="5.10" departSpeed="0.00" departDelay="122.00" arrival="367.00" arrivalLane="goal_1" arrivalPos="498.34" arrivalSpeed="15.03" duration="184.00" routeLength="2274.60" waitingTime="0.00" waitingCount="0" stopTime="0.00" timeLoss="37.00" rerouteNo="5" devices="tripinfo_0.61 routing_0.61" vType="DEFAULT_VEHTYPE" speedFactor="1.12" vaporized=""/>
    <tripinfo id="0.56" depart="168.00" departLane="start_0" departPos="5.10" departSpeed="0.00" departDelay="112.00" arrival="369.00" arrivalLane="goal_0" arrivalPos="498.34" arrivalSpeed="11.79" duration="201.00" routeLength="2274.60" waitingTime="0.00" waitingCount="0" stopTime="0.00" timeLoss="18.32" rerouteNo="6" devices="tripinfo_0.56 routing_0.56" vType="DEFAULT_VEHTYPE" speedFactor="0.90" vaporized=""/>
    <tripinfo id="0.55" depart="165.00" departLane="start_0" departPos="5.10" departSpeed="0.00" departDelay="110.00" arrival="370.00" arrivalLane="goal_1" arrivalPos="498.34" arrivalSpeed="13.04" duration="205.00" routeLength="2405.76" waitingTime="0.00" waitingCount="0" stopTime="0.00" timeLoss="29.38" rerouteNo="5" devices="tripinfo_0.55 routing_0.55" vType="DEFAULT_VEHTYPE" speedFactor="1.00" vaporized=""/>
    <tripinfo id="0.58" depart="174.00" departLane="start_0" departPos="5.10" departSpeed="0.00" departDelay="116.00" arrival="371.00" arrivalLane="goal_1" arrivalPos="498.34" arrivalSpeed="14.07" duration="197.00" routeLength="2405.76" waitingTime="0.00" waitingCount="0" stopTime="0.00" timeLoss="26.59" rerouteNo="5" devices="tripinfo_0.58 routing_0.58" vType="DEFAULT_VEHTYPE" speedFactor="1.02" vaporized=""/>
    <tripinfo id="0.49" depart="147.00" departLane="start_0" departPos="5.10" departSpeed="0.00" departDelay="98.00" arrival="372.00" arrivalLane="goal_0" arrivalPos="498.34" arrivalSpeed="11.63" duration="225.00" routeLength="2405.76" waitingTime="0.00" waitingCount="0" stopTime="0.00" timeLoss="19.48" rerouteNo="6" devices="tripinfo_0.49 routing_0.49" vType="DEFAULT_VEHTYPE" speedFactor="0.85" vaporized=""/>
    <tripinfo id="0.60" depart="180.00" departLane="start_0" departPos="5.10" departSpeed="0.00" departDelay="120.00" arrival="373.00" arrivalLane="goal_1" arrivalPos="498.34" arrivalSpeed="14.96" duration="193.00" routeLength="2405.76" waitingTime="0.00" waitingCount="0" stopTime="0.00" timeLoss="31.58" rerouteNo="5" devices="tripinfo_0.60 routing_0.60" vType="DEFAULT_VEHTYPE" speedFactor="1.08" vaporized=""/>
    <tripinfo id="0.54" depart="162.00" departLane="start_0" departPos="5.10" departSpeed="0.00" departDelay="108.00" arrival="374.00" arrivalLane="goal_0" arrivalPos="498.34" arrivalSpeed="13.03" duration="212.00" routeLength="2405.76" waitingTime="0.00" waitingCount="0" stopTime="0.00" timeLoss="37.95" rerouteNo="5" devices="tripinfo_0.54 routing_0.54" vType="DEFAULT_VEHTYPE" speedFactor="1.00" vaporized=""/>
    <tripinfo id="0.59" depart="177.00" departLane="start_0" departPos="5.10" departSpeed="0.00" departDelay="118.00" arrival="375.00" arrivalLane="goal_1" arrivalPos="498.34" arrivalSpeed="12.82" duration="198.00" routeLength="2405.76" waitingTime="0.00" waitingCount="0" stopTime="0.00" timeLoss="18.43" rerouteNo="5" devices="tripinfo_0.59 routing_0.59" vType="DEFAULT_VEHTYPE" speedFactor="0.97" vaporized=""/>
    <tripinfo id="0.62" depart="186.00" departLane="start_0" departPos="5.10" departSpeed="0.00" departDelay="124.00" arrival="378.00" arrivalLane="goal_0" arrivalPos="498.34" arrivalSpeed="13.05" duration="192.00" routeLength="2405.76" waitingTime="0.00" waitingCount="0" stopTime="0.00" timeLoss="19.88" rerouteNo="5" devices="tripinfo_0.62 routing_0.62" vType="DEFAULT_VEHTYPE" speedFactor="1.02" vaporized=""/>
    <tripinfo id="0.63" depart="189.00" departLane="start_0" departPos="5.10" departSpeed="0.00" departDelay="126.00" arrival="382.00" arrivalLane="goal_0" arrivalPos="498.34" arrivalSpeed="12.48" duration="193.00" routeLength="2405.76" waitingTime="0.00" waitingCount="0" stopTime="0.00" timeLoss="16.04" rerouteNo="5" devices="tripinfo_0.63 routing_0.63" vType="DEFAULT_VEHTYPE" speedFactor="0.99" vaporized=""/>
    <tripinfo id="0.64" depart="192.00" departLane="start_0" departPos="5.10" departSpeed="0.00" departDelay="128.00" arrival="394.00" arrivalLane="goal_0" arrivalPos="498.34" arrivalSpeed="12.04" duration="202.00" routeLength="2405.76" waitingTime="0.00" waitingCount="0" stopTime="0.00" timeLoss="16.58" rerouteNo="5" devices="tripinfo_0.64 routing_0.64" vType="DEFAULT_VEHTYPE" speedFactor="0.94" vaporized=""/>
    <tripinfo id="0.68" depart="204.00" departLane="start_0" departPos="5.10" departSpeed="0.00" departDelay="136.00" arrival="396.00" arrivalLane="goal_0" arrivalPos="498.34" arrivalSpeed="13.35" duration="192.00" routeLength="2274.60" waitingTime="0.00" waitingCount="0" stopTime="0.00" timeLoss="32.84" rerouteNo="5" devices="tripinfo_0.68 routing_0.68" vType="DEFAULT_VEHTYPE" speedFactor="1.04" vaporized=""/>
    <tripinfo id="0.66" depart="198.00" departLane="start_0" departPos="5.10" departSpeed="0.00" departDelay="132.00" arrival="397.00" arrivalLane="goal_0" arrivalPos="498.34" arrivalSpeed="11.75" duration="199.00" routeLength="2274.60" waitingTime="0.00" waitingCount="0" stopTime="0.00" timeLoss="16.91" rerouteNo="5" devices="tripinfo_0.66 routing_0.66" vType="DEFAULT_VEHTYPE" speedFactor="0.91" vaporized=""/>
    <tripinfo id="0.71" depart="213.00" departLane="start_0" departPos="5.10" departSpeed="0.00" departDelay="142.00" arrival="399.00" arrivalLane="goal_0" arrivalPos="498.34" arrivalSpeed="12.65" duration="186.00" routeLength="2274.60" waitingTime="0.00" waitingCount="0" stopTime="0.00" timeLoss="16.94" rerouteNo="5" devices="tripinfo_0.71 routing_0.71" vType="DEFAULT_VEHTYPE" speedFactor="0.97" vaporized=""/>
    <tripinfo id="0.74" depart="222.00" departLane="start_0" departPos="5.10" departSpeed="0.00" departDelay="148.00" arrival="410.00" arrivalLane="goal_1" arrivalPos="498.34" arrivalSpeed="12.07" duration="188.00" routeLength="2274.60" waitingTime="0.00" waitingCount="0" stopTime="0.00" timeLoss="16.53" rerouteNo="5" devices="tripinfo_0.74 routing_0.74" vType="DEFAULT_VEHTYPE" speedFactor="0.96" vaporized=""/>
    <tripinfo id="0.65" depart="195.00" departLane="start_0" departPos="5.10" departSpeed="0.00" departDelay="130.00" arrival="412.00" arrivalLane="goal_0" arrivalPos="498.34" arrivalSpeed="11.80" duration="217.00" routeLength="2405.76" waitingTime="0.00" waitingCount="0" stopTime="0.00" timeLoss="18.48" rerouteNo="6" devices="tripinfo_0.65 routing_0.65" vType="DEFAULT_VEHTYPE" speedFactor="0.88" vaporized=""/>