<?xml version="1.0" encoding="UTF-8"?>

<!-- generated on 2022-06-20 23:19:24 by Eclipse SUMO GUI Version 1.11.0
<configuration xmlns:xsi="http://www.w3.org/2001/XMLSchema-instance" xsi:noNamespaceSchemaLocation="http://sumo.dlr.de/xsd/sumoConfiguration.xsd">

    <input>
        <net-file value="blocks2.net.xml"/>
        <route-files value="blocks2_100_auto.rou.xml"/>
        <additional-files value="additional_autogen.xml"/>
    </input>

    <output>
        <tripinfo-output value="blocks2_100_auto_tripinfo.xml"/>
    </output>

    <report>
        <xml-validation value="never"/>
        <xml-validation.routes value="never"/>
        <log value="LOGFILE"/>
    </report>

    <traci_server>
        <remote-port value="58413"/>
    </traci_server>

    <gui_only>
        <quit-on-end value="true"/>
        <start value="true"/>
    </gui_only>

</configuration>
-->

<tripinfos xmlns:xsi="http://www.w3.org/2001/XMLSchema-instance" xsi:noNamespaceSchemaLocation="http://sumo.dlr.de/xsd/tripinfo_file.xsd">
    <tripinfo id="Sflow43.0" depart="8.00" departLane="in4_0" departPos="5.10" departSpeed="0.00" departDelay="0.00" arrival="39.00" arrivalLane="out3_0" arrivalPos="89.60" arrivalSpeed="16.00" duration="31.00" routeLength="383.13" waitingTime="0.00" waitingCount="0" stopTime="0.00" timeLoss="6.17" rerouteNo="0" devices="tripinfo_Sflow43.0" vType="DEFAULT_VEHTYPE" speedFactor="1.16" vaporized=""/>
    <tripinfo id="Sflow12.0" depart="4.00" departLane="in1_0" departPos="5.10" departSpeed="0.00" departDelay="0.00" arrival="41.00" arrivalLane="out2_1" arrivalPos="89.60" arrivalSpeed="12.98" duration="37.00" routeLength="393.46" waitingTime="0.00" waitingCount="0" stopTime="0.00" timeLoss="5.56" rerouteNo="0" devices="tripinfo_Sflow12.0" vType="DEFAULT_VEHTYPE" speedFactor="0.94" vaporized=""/>
    <tripinfo id="Sflow41.0" depart="0.00" departLane="in4_0" departPos="5.10" departSpeed="0.00" departDelay="0.00" arrival="45.00" arrivalLane="out1_0" arrivalPos="89.60" arrivalSpeed="15.01" duration="45.00" routeLength="594.90" waitingTime="0.00" waitingCount="0" stopTime="0.00" timeLoss="5.11" rerouteNo="0" devices="tripinfo_Sflow41.0" vType="DEFAULT_VEHTYPE" speedFactor="1.08" vaporized=""/>
    <tripinfo id="Sflow32.0" depart="4.00" departLane="in3_0" departPos="5.10" departSpeed="0.00" departDelay="0.00" arrival="53.00" arrivalLane="out2_0" arrivalPos="89.60" arrivalSpeed="14.15" duration="49.00" routeLength="571.36" waitingTime="0.00" waitingCount="0" stopTime="0.00" timeLoss="9.80" rerouteNo="0" devices="tripinfo_Sflow32.0" vType="DEFAULT_VEHTYPE" speedFactor="1.09" vaporized=""/>
    <tripinfo id="Sflow21.0" depart="0.00" departLane="in2_0" departPos="5.10" departSpeed="0.00" departDelay="0.00" arrival="55.00" arrivalLane="out1_0" arrivalPos="89.60" arrivalSpeed="12.57" duration="55.00" routeLength="383.13" waitingTime="16.00" waitingCount="1" stopTime="0.00" timeLoss="24.57" rerouteNo="0" devices="tripinfo_Sflow21.0" vType="DEFAULT_VEHTYPE" speedFactor="0.94" vaporized=""/>
    <tripinfo id="Sflow65.0" depart="16.00" departLane="in6_0" departPos="5.10" departSpeed="0.00" departDelay="0.00" arrival="59.00" arrivalLane="out5_0" arrivalPos="89.60" arrivalSpeed="16.24" duration="43.00" routeLength="383.13" waitingTime="1.00" waitingCount="1" stopTime="0.00" timeLoss="18.09" rerouteNo="0" devices="tripinfo_Sflow65.0" vType="DEFAULT_VEHTYPE" speedFactor="1.18" vaporized=""/>
    <tripinfo id="Sflow54.0" depart="12.00" departLane="in5_0" departPos="5.10" departSpeed="0.00" departDelay="0.00" arrival="60.00" arrivalLane="out4_0" arrivalPos="89.60" arrivalSpeed="14.85" duration="48.00" routeLength="571.36" waitingTime="0.00" waitingCount="0" stopTime="0.00" timeLoss="10.13" rerouteNo="0" devices="tripinfo_Sflow54.0" vType="DEFAULT_VEHTYPE" speedFactor="1.13" vaporized=""/>
    <tripinfo id="Sflow78.0" depart="28.00" departLane="in7_0" departPos="5.10" departSpeed="0.00" departDelay="0.00" arrival="62.00" arrivalLane="out8_1" arrivalPos="89.60" arrivalSpeed="13.78" duration="34.00" routeLength="393.46" waitingTime="0.00" waitingCount="0" stopTime="0.00" timeLoss="5.10" rerouteNo="0" devices="tripinfo_Sflow78.0" vType="DEFAULT_VEHTYPE" speedFactor="1.02" vaporized=""/>
    <tripinfo id="Sflow23.0" depart="8.00" departLane="in2_0" departPos="5.10" departSpeed="0.00" departDelay="0.00" arrival="63.00" arrivalLane="out3_1" arrivalPos="89.60" arrivalSpeed="11.81" duration="55.00" routeLength="592.01" waitingTime="0.00" waitingCount="0" stopTime="0.00" timeLoss="7.58" rerouteNo="0" devices="tripinfo_Sflow23.0" vType="DEFAULT_VEHTYPE" speedFactor="0.94" vaporized=""/>
    <tripinfo id="Sflow34.0" depart="12.00" departLane="in3_0" departPos="5.10" departSpeed="0.00" departDelay="0.00" arrival="63.00" arrivalLane="out4_1" arrivalPos="89.60" arrivalSpeed="12.40" duration="51.00" routeLength="393.46" waitingTime="8.00" waitingCount="2" stopTime="0.00" timeLoss="19.34" rerouteNo="0" devices="tripinfo_Sflow34.0" vType="DEFAULT_VEHTYPE" speedFactor="0.92" vaporized=""/>
    <tripinfo id="Sflow21.1" depart="31.00" departLane="in2_0" departPos="5.10" departSpeed="0.00" departDelay="0.00" arrival="71.00" arrivalLane="out1_0" arrivalPos="89.60" arrivalSpeed="11.91" duration="40.00" routeLength="383.13" waitingTime="0.00" waitingCount="0" stopTime="0.00" timeLoss="7.08" rerouteNo="0" devices="tripinfo_Sflow21.1" vType="DEFAULT_VEHTYPE" speedFactor="0.88" vaporized=""/>
    <tripinfo id="Sflow81.0" depart="0.00" departLane="in8_0" departPos="5.10" departSpeed="0.00" departDelay="0.00" arrival="72.00" arrivalLane="out1_1" arrivalPos="89.60" arrivalSpeed="11.62" duration="72.00" routeLength="592.02" waitingTime="11.00" waitingCount="1" stopTime="0.00" timeLoss="21.85" rerouteNo="0" devices="tripinfo_Sflow81.0" vType="DEFAULT_VEHTYPE" speedFactor="0.89" vaporized=""/>
    <tripinfo id="Sflow11.0" depart="0.00" departLane="in1_0" departPos="5.10" departSpeed="0.00" departDelay="0.00" arrival="86.00" arrivalLane="out1_1" arrivalPos="89.60" arrivalSpeed="14.16" duration="86.00" routeLength="963.31" waitingTime="3.00" waitingCount="1" stopTime="0.00" timeLoss="18.25" rerouteNo="0" devices="tripinfo_Sflow11.0" vType="DEFAULT_VEHTYPE" speedFactor="1.06" vaporized=""/>
    <tripinfo id="Sflow82.0" depart="4.00" departLane="in8_0" departPos="5.10" departSpeed="0.00" departDelay="0.00" arrival="101.00" arrivalLane="out2_0" arrivalPos="89.60" arrivalSpeed="12.87" duration="97.00" routeLength="793.46" waitingTime="22.00" waitingCount="1" stopTime="0.00" timeLoss="34.80" rerouteNo="0" devices="tripinfo_Sflow82.0" vType="DEFAULT_VEHTYPE" speedFactor="0.93" vaporized=""/>
    <tripinfo id="Sflow53.0" depart="8.00" departLane="in5_0" departPos="5.10" departSpeed="0.00" departDelay="0.00" arrival="101.00" arrivalLane="out3_0" arrivalPos="89.60" arrivalSpeed="12.89" duration="93.00" routeLength="783.13" waitingTime="22.00" waitingCount="1" stopTime="0.00" timeLoss="35.72" rerouteNo="0" devices="tripinfo_Sflow53.0" vType="DEFAULT_VEHTYPE" speedFactor="1.02" vaporized=""/>
    <tripinfo id="Sflow56.0" depart="20.00" departLane="in5_0" departPos="5.10" departSpeed="0.00" departDelay="0.00" arrival="101.00" arrivalLane="out6_0" arrivalPos="89.60" arrivalSpeed="13.92" duration="81.00" routeLength="393.46" waitingTime="41.00" waitingCount="1" stopTime="0.00" timeLoss="52.57" rerouteNo="0" devices="tripinfo_Sflow56.0" vType="DEFAULT_VEHTYPE" speedFactor="1.04" vaporized=""/>
    <tripinfo id="Sflow87.0" depart="24.00" departLane="in8_0" departPos="5.10" departSpeed="0.00" departDelay="0.00" arrival="101.00" arrivalLane="out7_0" arrivalPos="89.60" arrivalSpeed="13.37" duration="77.00" routeLength="383.13" waitingTime="37.00" waitingCount="1" stopTime="0.00" timeLoss="48.16" rerouteNo="0" devices="tripinfo_Sflow87.0" vType="DEFAULT_VEHTYPE" speedFactor="1.00" vaporized=""/>
    <tripinfo id="Sflow14.0" depart="12.00" departLane="in1_0" departPos="5.10" departSpeed="0.00" departDelay="0.00" arrival="102.00" arrivalLane="out4_0" arrivalPos="89.60" arrivalSpeed="10.94" duration="90.00" routeLength="594.90" waitingTime="28.00" waitingCount="1" stopTime="0.00" timeLoss="37.94" rerouteNo="0" devices="tripinfo_Sflow14.0" vType="DEFAULT_VEHTYPE" speedFactor="0.83" vaporized=""/>
    <tripinfo id="Sflow84.0" depart="12.00" departLane="in8_0" departPos="5.10" departSpeed="0.00" departDelay="0.00" arrival="104.00" arrivalLane="out4_0" arrivalPos="89.60" arrivalSpeed="14.47" duration="92.00" routeLength="981.69" waitingTime="6.00" waitingCount="1" stopTime="0.00" timeLoss="28.59" rerouteNo="0" devices="tripinfo_Sflow84.0" vType="DEFAULT_VEHTYPE" speedFactor="1.15" vaporized=""/>
    <tripinfo id="Sflow55.0" depart="16.00" departLane="in5_0" departPos="5.10" departSpeed="0.00" departDelay="0.00" arrival="105.00" arrivalLane="out5_0" arrivalPos="89.60" arrivalSpeed="12.70" duration="89.00" routeLength="958.15" waitingTime="0.00" waitingCount="0" stopTime="0.00" timeLoss="14.64" rerouteNo="0" devices="tripinfo_Sflow55.0" vType="DEFAULT_VEHTYPE" speedFactor="0.97" vaporized=""/>
    <tripinfo id="Sflow66.0" depart="20.00" departLane="in6_0" departPos="5.10" departSpeed="0.00" departDelay="0.00" arrival="113.00" arrivalLane="out6_0" arrivalPos="89.60" arrivalSpeed="14.50" duration="93.00" routeLength="958.15" waitingTime="10.00" waitingCount="1" stopTime="0.00" timeLoss="27.30" rerouteNo="0" devices="tripinfo_Sflow66.0" vType="DEFAULT_VEHTYPE" speedFactor="1.09" vaporized=""/>
    <tripinfo id="Sflow42.0" depart="4.00" departLane="in4_0" departPos="5.10" departSpeed="0.00" departDelay="0.00" arrival="114.00" arrivalLane="out2_0" arrivalPos="89.60" arrivalSpeed="13.05" duration="110.00" routeLength="783.13" waitingTime="43.00" waitingCount="1" stopTime="0.00" timeLoss="54.47" rerouteNo="0" devices="tripinfo_Sflow42.0" vType="DEFAULT_VEHTYPE" speedFactor="1.03" vaporized=""/>
    <tripinfo id="Sflow56.1" depart="50.00" departLane="in5_0" departPos="5.10" departSpeed="0.00" departDelay="0.00" arrival="114.00" arrivalLane="out6_1" arrivalPos="89.60" arrivalSpeed="14.63" duration="64.00" routeLength="393.46" waitingTime="28.00" waitingCount="1" stopTime="0.00" timeLoss="36.50" rerouteNo="0" devices="tripinfo_Sflow56.1" vType="DEFAULT_VEHTYPE" speedFactor="1.06" vaporized=""/>
    <tripinfo id="Sflow58.0" depart="28.00" departLane="in5_0" departPos="5.10" departSpeed="0.00" departDelay="0.00" arrival="115.00" arrivalLane="out8_0" arrivalPos="89.60" arrivalSpeed="13.96" duration="87.00" routeLength="594.90" waitingTime="35.00" waitingCount="1" stopTime="0.00" timeLoss="46.82" rerouteNo="0" devices="tripinfo_Sflow58.0" vType="DEFAULT_VEHTYPE" speedFactor="1.08" vaporized=""/>
    <tripinfo id="Sflow41.1" depart="31.00" departLane="in4_0" departPos="5.10" departSpeed="0.00" departDelay="0.00" arrival="118.00" arrivalLane="out1_0" arrivalPos="89.60" arrivalSpeed="11.91" duration="87.00" routeLength="594.90" waitingTime="29.00" waitingCount="1" stopTime="0.00" timeLoss="40.14" rerouteNo="0" devices="tripinfo_Sflow41.1" vType="DEFAULT_VEHTYPE" speedFactor="0.91" vaporized=""/>
    <tripinfo id="Sflow43.1" depart="38.00" departLane="in4_0" departPos="5.10" departSpeed="0.00" departDelay="0.00" arrival="119.00" arrivalLane="out3_0" arrivalPos="89.60" arrivalSpeed="12.71" duration="81.00" routeLength="383.13" waitingTime="40.00" waitingCount="1" stopTime="0.00" timeLoss="51.28" rerouteNo="0" devices="tripinfo_Sflow43.1" vType="DEFAULT_VEHTYPE" speedFactor="0.97" vaporized=""/>
    <tripinfo id="Sflow31.0" depart="0.00" departLane="in3_0" departPos="5.10" departSpeed="0.00" departDelay="0.00" arrival="120.00" arrivalLane="out1_0" arrivalPos="89.60" arrivalSpeed="12.77" duration="120.00" routeLength="783.13" waitingTime="45.00" waitingCount="2" stopTime="0.00" timeLoss="63.40" rerouteNo="0" devices="tripinfo_Sflow31.0" vType="DEFAULT_VEHTYPE" speedFactor="1.01" vaporized=""/>
    <tripinfo id="Sflow24.0" depart="12.00" departLane="in2_0" departPos="5.10" departSpeed="0.00" departDelay="0.00" arrival="121.00" arrivalLane="out4_0" arrivalPos="89.60" arrivalSpeed="11.12" duration="109.00" routeLength="793.46" waitingTime="22.00" waitingCount="2" stopTime="0.00" timeLoss="41.85" rerouteNo="0" devices="tripinfo_Sflow24.0" vType="DEFAULT_VEHTYPE" speedFactor="0.87" vaporized=""/>
    <tripinfo id="Sflow85.0" depart="16.00" departLane="in8_0" departPos="5.10" departSpeed="0.00" departDelay="0.00" arrival="121.00" arrivalLane="out5_0" arrivalPos="89.60" arrivalSpeed="12.47" duration="105.00" routeLength="594.90" waitingTime="44.00" waitingCount="1" stopTime="0.00" timeLoss="57.12" rerouteNo="0" devices="tripinfo_Sflow85.0" vType="DEFAULT_VEHTYPE" speedFactor="0.90" vaporized=""/>
    <tripinfo id="Sflow12.1" depart="34.00" departLane="in1_0" departPos="5.10" departSpeed="0.00" departDelay="0.00" arrival="121.00" arrivalLane="out2_1" arrivalPos="89.60" arrivalSpeed="12.46" duration="87.00" routeLength="393.46" waitingTime="44.00" waitingCount="1" stopTime="0.00" timeLoss="55.24" rerouteNo="0" devices="tripinfo_Sflow12.1" vType="DEFAULT_VEHTYPE" speedFactor="0.94" vaporized=""/>
    <tripinfo id="Sflow87.1" depart="54.00" departLane="in8_0" departPos="5.10" departSpeed="0.00" departDelay="0.00" arrival="121.00" arrivalLane="out7_0" arrivalPos="89.60" arrivalSpeed="13.89" duration="67.00" routeLength="383.13" waitingTime="28.00" waitingCount="1" stopTime="0.00" timeLoss="40.07" rerouteNo="0" devices="tripinfo_Sflow87.1" vType="DEFAULT_VEHTYPE" speedFactor="1.07" vaporized=""/>
    <tripinfo id="Sflow22.0" depart="4.00" departLane="in2_0" departPos="5.10" departSpeed="0.00" departDelay="0.00" arrival="122.00" arrivalLane="out2_0" arrivalPos="89.60" arrivalSpeed="11.51" duration="118.00" routeLength="958.15" waitingTime="17.00" waitingCount="1" stopTime="0.00" timeLoss="33.51" rerouteNo="0" devices="tripinfo_Sflow22.0" vType="DEFAULT_VEHTYPE" speedFactor="0.86" vaporized=""/>
    <tripinfo id="Sflow12.2" depart="64.00" departLane="in1_0" departPos="5.10" departSpeed="0.00" departDelay="0.00" arrival="124.00" arrivalLane="out2_1" arrivalPos="89.60" arrivalSpeed="14.68" duration="60.00" routeLength="393.46" waitingTime="17.00" waitingCount="1" stopTime="0.00" timeLoss="33.36" rerouteNo="0" devices="tripinfo_Sflow12.2" vType="DEFAULT_VEHTYPE" speedFactor="1.12" vaporized=""/>
    <tripinfo id="Sflow51.0" depart="0.00" departLane="in5_0" departPos="5.10" departSpeed="0.00" departDelay="0.00" arrival="125.00" arrivalLane="out1_0" arrivalPos="89.60" arrivalSpeed="14.19" duration="125.00" routeLength="981.69" waitingTime="26.00" waitingCount="3" stopTime="0.00" timeLoss="54.68" rerouteNo="0" devices="tripinfo_Sflow51.0" vType="DEFAULT_VEHTYPE" speedFactor="1.03" vaporized=""/>
    <tripinfo id="Sflow15.0" depart="16.00" departLane="in1_0" departPos="5.10" departSpeed="0.00" departDelay="0.00" arrival="125.00" arrivalLane="out5_0" arrivalPos="89.60" arrivalSpeed="13.90" duration="109.00" routeLength="981.69" waitingTime="17.00" waitingCount="2" stopTime="0.00" timeLoss="36.98" rerouteNo="0" devices="tripinfo_Sflow15.0" vType="DEFAULT_VEHTYPE" speedFactor="1.01" vaporized=""/>
    <tripinfo id="Sflow68.0" depart="28.00" departLane="in6_0" departPos="5.10" departSpeed="0.00" departDelay="0.00" arrival="125.00" arrivalLane="out8_0" arrivalPos="89.60" arrivalSpeed="14.64" duration="97.00" routeLength="793.46" waitingTime="24.00" waitingCount="1" stopTime="0.00" timeLoss="45.34" rerouteNo="0" devices="tripinfo_Sflow68.0" vType="DEFAULT_VEHTYPE" speedFactor="1.12" vaporized=""/>
    <tripinfo id="Sflow43.2" depart="68.00" departLane="in4_0" departPos="5.10" departSpeed="0.00" departDelay="0.00" arrival="125.00" arrivalLane="out3_0" arrivalPos="89.60" arrivalSpeed="13.86" duration="57.00" routeLength="383.13" waitingTime="16.00" waitingCount="1" stopTime="0.00" timeLoss="27.56" rerouteNo="0" devices="tripinfo_Sflow43.2" vType="DEFAULT_VEHTYPE" speedFactor="1.00" vaporized=""/>
    <tripinfo id="Sflow87.2" depart="84.00" departLane="in8_0" departPos="5.10" departSpeed="0.00" departDelay="0.00" arrival="127.00" arrivalLane="out7_0" arrivalPos="89.60" arrivalSpeed="14.58" duration="43.00" routeLength="383.13" waitingTime="3.00" waitingCount="1" stopTime="0.00" timeLoss="16.99" rerouteNo="0" devices="tripinfo_Sflow87.2" vType="DEFAULT_VEHTYPE" speedFactor="1.08" vaporized=""/>
    <tripinfo id="Sflow56.2" depart="80.00" departLane="in5_0" departPos="5.10" departSpeed="0.00" departDelay="0.00" arrival="128.00" arrivalLane="out6_0" arrivalPos="89.60" arrivalSpeed="11.12" duration="48.00" routeLength="393.46" waitingTime="2.00" waitingCount="1" stopTime="0.00" timeLoss="14.75" rerouteNo="0" devices="tripinfo_Sflow56.2" vType="DEFAULT_VEHTYPE" speedFactor="0.89" vaporized=""/>
    <tripinfo id="Sflow75.0" depart="16.00" departLane="in7_0" departPos="5.10" departSpeed="0.00" departDelay="0.00" arrival="131.00" arrivalLane="out5_0" arrivalPos="89.60" arrivalSpeed="15.30" duration="115.00" routeLength="783.13" waitingTime="38.00" waitingCount="3" stopTime="0.00" timeLoss="62.74" rerouteNo="0" devices="tripinfo_Sflow75.0" vType="DEFAULT_VEHTYPE" speedFactor="1.10" vaporized=""/>
    <tripinfo id="Sflow31.1" depart="31.00" departLane="in3_0" departPos="5.10" departSpeed="0.00" departDelay="0.00" arrival="131.00" arrivalLane="out1_0" arrivalPos="89.60" arrivalSpeed="12.27" duration="100.00" routeLength="783.13" waitingTime="18.00" waitingCount="2" stopTime="0.00" timeLoss="36.53" rerouteNo="0" devices="tripinfo_Sflow31.1" vType="DEFAULT_VEHTYPE" speedFactor="0.91" vaporized=""/>
    <tripinfo id="Sflow14.1" depart="42.00" departLane="in1_0" departPos="5.10" departSpeed="0.00" departDelay="0.00" arrival="132.00" arrivalLane="out4_0" arrivalPos="89.60" arrivalSpeed="13.70" duration="90.00" routeLength="594.90" waitingTime="37.00" waitingCount="1" stopTime="0.00" timeLoss="47.25" rerouteNo="0" devices="tripinfo_Sflow14.1" vType="DEFAULT_VEHTYPE" speedFactor="1.01" vaporized=""/>
    <tripinfo id="Sflow85.1" depart="46.00" departLane="in8_0" departPos="5.10" departSpeed="0.00" departDelay="0.00" arrival="135.00" arrivalLane="out5_0" arrivalPos="89.60" arrivalSpeed="13.15" duration="89.00" routeLength="594.90" waitingTime="33.00" waitingCount="1" stopTime="0.00" timeLoss="43.26" rerouteNo="0" devices="tripinfo_Sflow85.1" vType="DEFAULT_VEHTYPE" speedFactor="0.95" vaporized=""/>
    <tripinfo id="Sflow43.3" depart="98.00" departLane="in4_0" departPos="5.10" departSpeed="0.00" departDelay="0.00" arrival="135.00" arrivalLane="out3_0" arrivalPos="89.60" arrivalSpeed="14.11" duration="37.00" routeLength="383.13" waitingTime="0.00" waitingCount="0" stopTime="0.00" timeLoss="9.74" rerouteNo="0" devices="tripinfo_Sflow43.3" vType="DEFAULT_VEHTYPE" speedFactor="1.04" vaporized=""/>
    <tripinfo id="Sflow86.0" depart="20.00" departLane="in8_0" departPos="5.10" departSpeed="0.00" departDelay="0.00" arrival="137.00" arrivalLane="out6_0" arrivalPos="89.60" arrivalSpeed="12.11" duration="117.00" routeLength="783.13" waitingTime="38.00" waitingCount="2" stopTime="0.00" timeLoss="52.55" rerouteNo="0" devices="tripinfo_Sflow86.0" vType="DEFAULT_VEHTYPE" speedFactor="0.90" vaporized=""/>
    <tripinfo id="Sflow41.2" depart="61.00" departLane="in4_0" departPos="5.10" departSpeed="0.00" departDelay="0.00" arrival="137.00" arrivalLane="out1_0" arrivalPos="89.60" arrivalSpeed="12.97" duration="76.00" routeLength="594.90" waitingTime="19.00" waitingCount="1" stopTime="0.00" timeLoss="31.30" rerouteNo="0" devices="tripinfo_Sflow41.2" vType="DEFAULT_VEHTYPE" speedFactor="0.96" vaporized=""/>
    <tripinfo id="Sflow76.0" depart="20.00" departLane="in7_0" departPos="5.10" departSpeed="0.00" departDelay="0.00" arrival="145.00" arrivalLane="out6_1" arrivalPos="89.60" arrivalSpeed="13.53" duration="125.00" routeLength="576.52" waitingTime="65.00" waitingCount="2" stopTime="0.00" timeLoss="82.27" rerouteNo="0" devices="tripinfo_Sflow76.0" vType="DEFAULT_VEHTYPE" speedFactor="1.00" vaporized=""/>
    <tripinfo id="Sflow67.0" depart="24.00" departLane="in6_0" departPos="5.10" departSpeed="0.00" departDelay="0.00" arrival="145.00" arrivalLane="out7_1" arrivalPos="89.60" arrivalSpeed="14.16" duration="121.00" routeLength="592.01" waitingTime="63.00" waitingCount="2" stopTime="0.00" timeLoss="80.53" rerouteNo="0" devices="tripinfo_Sflow67.0" vType="DEFAULT_VEHTYPE" speedFactor="1.10" vaporized=""/>
    <tripinfo id="Sflow32.1" depart="34.00" departLane="in3_0" departPos="5.10" departSpeed="0.00" departDelay="0.00" arrival="145.00" arrivalLane="out2_0" arrivalPos="89.60" arrivalSpeed="12.96" duration="111.00" routeLength="571.36" waitingTime="51.00" waitingCount="2" stopTime="0.00" timeLoss="65.79" rerouteNo="0" devices="tripinfo_Sflow32.1" vType="DEFAULT_VEHTYPE" speedFactor="0.96" vaporized=""/>
    <tripinfo id="Sflow76.1" depart="50.00" departLane="in7_0" departPos="5.10" departSpeed="0.00" departDelay="0.00" arrival="145.00" arrivalLane="out6_0" arrivalPos="89.60" arrivalSpeed="11.84" duration="95.00" routeLength="571.36" waitingTime="34.00" waitingCount="2" stopTime="0.00" timeLoss="49.40" rerouteNo="0" devices="tripinfo_Sflow76.1" vType="DEFAULT_VEHTYPE" speedFactor="0.93" vaporized=""/>
    <tripinfo id="Sflow23.1" depart="38.00" departLane="in2_0" departPos="5.10" departSpeed="0.00" departDelay="0.00" arrival="146.00" arrivalLane="out3_1" arrivalPos="89.60" arrivalSpeed="12.85" duration="108.00" routeLength="592.01" waitingTime="47.00" waitingCount="2" stopTime="0.00" timeLoss="63.39" rerouteNo="0" devices="tripinfo_Sflow23.1" vType="DEFAULT_VEHTYPE" speedFactor="1.00" vaporized=""/>
    <tripinfo id="Sflow32.2" depart="64.00" departLane="in3_0" departPos="5.10" departSpeed="0.00" departDelay="0.00" arrival="147.00" arrivalLane="out2_0" arrivalPos="89.60" arrivalSpeed="13.75" duration="83.00" routeLength="571.36" waitingTime="21.00" waitingCount="1" stopTime="0.00" timeLoss="40.26" rerouteNo="0" devices="tripinfo_Sflow32.2" vType="DEFAULT_VEHTYPE" speedFactor="1.00" vaporized=""/>
    <tripinfo id="Sflow64.0" depart="12.00" departLane="in6_0" departPos="5.10" departSpeed="0.00" departDelay="0.00" arrival="148.00" arrivalLane="out4_0" arrivalPos="89.60" arrivalSpeed="12.27" duration="136.00" routeLength="783.13" waitingTime="47.00" waitingCount="3" stopTime="0.00" timeLoss="74.44" rerouteNo="0" devices="tripinfo_Sflow64.0" vType="DEFAULT_VEHTYPE" speedFactor="0.93" vaporized=""/>
    <tripinfo id="Sflow67.1" depart="54.00" departLane="in6_0" departPos="5.10" departSpeed="0.00" departDelay="0.00" arrival="148.00" arrivalLane="out7_1" arrivalPos="89.60" arrivalSpeed="13.15" duration="94.00" routeLength="592.01" waitingTime="29.00" waitingCount="2" stopTime="0.00" timeLoss="49.66" rerouteNo="0" devices="tripinfo_Sflow67.1" vType="DEFAULT_VEHTYPE" speedFactor="1.00" vaporized=""/>
    <tripinfo id="Sflow18.0" depart="28.00" departLane="in1_0" departPos="5.10" departSpeed="0.00" departDelay="0.00" arrival="149.00" arrivalLane="out8_0" arrivalPos="89.60" arrivalSpeed="11.65" duration="121.00" routeLength="571.36" waitingTime="53.00" waitingCount="2" stopTime="0.00" timeLoss="72.66" rerouteNo="0" devices="tripinfo_Sflow18.0" vType="DEFAULT_VEHTYPE" speedFactor="0.90" vaporized=""/>
    <tripinfo id="Sflow28.0" depart="28.00" departLane="in2_0" departPos="5.10" departSpeed="0.00" departDelay="0.00" arrival="150.00" arrivalLane="out8_0" arrivalPos="89.60" arrivalSpeed="13.90" duration="122.00" routeLength="783.13" waitingTime="35.00" waitingCount="3" stopTime="0.00" timeLoss="72.19" rerouteNo="0" devices="tripinfo_Sflow28.0" vType="DEFAULT_VEHTYPE" speedFactor="1.14" vaporized=""/>
    <tripinfo id="Sflow65.1" depart="46.00" departLane="in6_0" departPos="5.10" departSpeed="0.00" departDelay="0.00" arrival="150.00" arrivalLane="out5_0" arrivalPos="89.60" arrivalSpeed="12.63" duration="104.00" routeLength="383.13" waitingTime="55.00" waitingCount="2" stopTime="0.00" timeLoss="74.38" rerouteNo="0" devices="tripinfo_Sflow65.1" vType="DEFAULT_VEHTYPE" speedFactor="0.96" vaporized=""/>
    <tripinfo id="Sflow21.2" depart="61.00" departLane="in2_0" departPos="5.10" departSpeed="0.00" departDelay="0.00" arrival="150.00" arrivalLane="out1_0" arrivalPos="89.60" arrivalSpeed="14.29" duration="89.00" routeLength="383.13" waitingTime="40.00" waitingCount="2" stopTime="0.00" timeLoss="61.08" rerouteNo="0" devices="tripinfo_Sflow21.2" vType="DEFAULT_VEHTYPE" speedFactor="1.03" vaporized=""/>
    <tripinfo id="Sflow76.2" depart="80.00" departLane="in7_0" departPos="5.10" departSpeed="0.00" departDelay="0.00" arrival="151.00" arrivalLane="out6_0" arrivalPos="89.60" arrivalSpeed="12.44" duration="71.00" routeLength="571.36" waitingTime="10.00" waitingCount="1" stopTime="0.00" timeLoss="26.14" rerouteNo="0" devices="tripinfo_Sflow76.2" vType="DEFAULT_VEHTYPE" speedFactor="0.96" vaporized=""/>
    <tripinfo id="Sflow18.1" depart="58.00" departLane="in1_0" departPos="5.10" departSpeed="0.00" departDelay="0.00" arrival="153.00" arrivalLane="out8_0" arrivalPos="89.60" arrivalSpeed="13.02" duration="95.00" routeLength="571.36" waitingTime="29.00" waitingCount="2" stopTime="0.00" timeLoss="49.55" rerouteNo="0" devices="tripinfo_Sflow18.1" vType="DEFAULT_VEHTYPE" speedFactor="0.94" vaporized=""/>
    <tripinfo id="Sflow32.3" depart="94.00" departLane="in3_0" departPos="5.10" departSpeed="0.00" departDelay="0.00" arrival="153.00" arrivalLane="out2_0" arrivalPos="89.60" arrivalSpeed="13.86" duration="59.00" routeLength="571.36" waitingTime="0.00" waitingCount="0" stopTime="0.00" timeLoss="17.39" rerouteNo="0" devices="tripinfo_Sflow32.3" vType="DEFAULT_VEHTYPE" speedFactor="1.04" vaporized=""/>
    <tripinfo id="Sflow54.1" depart="42.00" departLane="in5_0" departPos="5.10" departSpeed="0.00" departDelay="0.00" arrival="154.00" arrivalLane="out4_0" arrivalPos="89.60" arrivalSpeed="10.39" duration="112.00" routeLength="571.36" waitingTime="39.00" waitingCount="2" stopTime="0.00" timeLoss="61.26" rerouteNo="0" devices="tripinfo_Sflow54.1" vType="DEFAULT_VEHTYPE" speedFactor="0.83" vaporized=""/>
    <tripinfo id="Sflow67.2" depart="84.00" departLane="in6_0" departPos="5.10" departSpeed="0.00" departDelay="0.00" arrival="154.00" arrivalLane="out7_1" arrivalPos="89.60" arrivalSpeed="14.18" duration="70.00" routeLength="592.01" waitingTime="4.00" waitingCount="1" stopTime="0.00" timeLoss="26.95" rerouteNo="0" devices="tripinfo_Sflow67.2" vType="DEFAULT_VEHTYPE" speedFactor="1.03" vaporized=""/>
    <tripinfo id="Sflow54.2" depart="72.00" departLane="in5_0" departPos="5.10" departSpeed="0.00" departDelay="0.00" arrival="156.00" arrivalLane="out4_0" arrivalPos="89.60" arrivalSpeed="16.03" duration="84.00" routeLength="571.36" waitingTime="9.00" waitingCount="2" stopTime="0.00" timeLoss="46.59" rerouteNo="0" devices="tripinfo_Sflow54.2" vType="DEFAULT_VEHTYPE" speedFactor="1.18" vaporized=""/>
    <tripinfo id="Sflow65.2" depart="76.00" departLane="in6_0" departPos="5.10" departSpeed="0.00" departDelay="0.00" arrival="156.00" arrivalLane="out5_0" arrivalPos="89.60" arrivalSpeed="12.36" duration="80.00" routeLength="383.13" waitingTime="28.00" waitingCount="2" stopTime="0.00" timeLoss="48.61" rerouteNo="0" devices="tripinfo_Sflow65.2" vType="DEFAULT_VEHTYPE" speedFactor="0.91" vaporized=""/>
    <tripinfo id="Sflow18.2" depart="88.00" departLane="in1_0" departPos="5.10" departSpeed="0.00" departDelay="0.00" arrival="156.00" arrivalLane="out8_0" arrivalPos="89.60" arrivalSpeed="12.67" duration="68.00" routeLength="571.36" waitingTime="0.00" waitingCount="0" stopTime="0.00" timeLoss="22.10" rerouteNo="0" devices="tripinfo_Sflow18.2" vType="DEFAULT_VEHTYPE" speedFactor="0.94" vaporized=""/>
    <tripinfo id="Sflow78.1" depart="58.00" departLane="in7_0" departPos="5.10" departSpeed="0.00" departDelay="0.00" arrival="157.00" arrivalLane="out8_1" arrivalPos="89.60" arrivalSpeed="14.25" duration="99.00" routeLength="393.46" waitingTime="49.00" waitingCount="3" stopTime="0.00" timeLoss="70.17" rerouteNo="0" devices="tripinfo_Sflow78.1" vType="DEFAULT_VEHTYPE" speedFactor="1.03" vaporized=""/>
    <tripinfo id="Sflow21.3" depart="91.00" departLane="in2_0" departPos="5.10" departSpeed="0.00" departDelay="0.00" arrival="157.00" arrivalLane="out1_0" arrivalPos="89.60" arrivalSpeed="10.76" duration="66.00" routeLength="383.13" waitingTime="11.00" waitingCount="2" stopTime="0.00" timeLoss="31.83" rerouteNo="0" devices="tripinfo_Sflow21.3" vType="DEFAULT_VEHTYPE" speedFactor="0.84" vaporized=""/>
    <tripinfo id="Sflow54.3" depart="102.00" departLane="in5_0" departPos="5.10" departSpeed="0.00" departDelay="0.00" arrival="158.00" arrivalLane="out4_0" arrivalPos="89.60" arrivalSpeed="13.27" duration="56.00" routeLength="571.36" waitingTime="0.00" waitingCount="0" stopTime="0.00" timeLoss="12.83" rerouteNo="0" devices="tripinfo_Sflow54.3" vType="DEFAULT_VEHTYPE" speedFactor="1.00" vaporized=""/>
    <tripinfo id="Sflow34.1" depart="42.00" departLane="in3_0" departPos="5.10" departSpeed="0.00" departDelay="0.00" arrival="160.00" arrivalLane="out4_1" arrivalPos="89.60" arrivalSpeed="13.38" duration="118.00" routeLength="393.46" waitingTime="70.00" waitingCount="3" stopTime="0.00" timeLoss="89.25" rerouteNo="0" devices="tripinfo_Sflow34.1" vType="DEFAULT_VEHTYPE" speedFactor="1.02" vaporized=""/>
    <tripinfo id="Sflow65.3" depart="106.00" departLane="in6_0" departPos="5.10" departSpeed="0.00" departDelay="0.00" arrival="160.00" arrivalLane="out5_0" arrivalPos="89.60" arrivalSpeed="12.59" duration="54.00" routeLength="383.13" waitingTime="10.00" waitingCount="1" stopTime="0.00" timeLoss="25.64" rerouteNo="0" devices="tripinfo_Sflow65.3" vType="DEFAULT_VEHTYPE" speedFactor="0.99" vaporized=""/>