<?xml version="1.0" encoding="UTF-8"?>

<!-- generated on 2021-11-22 15:30:13 by Eclipse SUMO sumo Version 1.9.2
<configuration xmlns:xsi="http://www.w3.org/2001/XMLSchema-instance" xsi:noNamespaceSchemaLocation="http://sumo.dlr.de/xsd/sumoConfiguration.xsd">

    <input>
        <net-file value="shortlong.net.xml"/>
        <route-files value="shortlong.rou.xml"/>
        <additional-files value="additional.xml"/>
    </input>

    <output>
        <tripinfo-output value="tripinfo.xml"/>
    </output>

    <time>
        <begin value="0"/>
        <end value="10000"/>
        <step-length value="1"/>
    </time>

    <processing>
        <time-to-teleport value="1000"/>
    </processing>

    <report>
        <xml-validation value="never"/>
        <xml-validation.routes value="never"/>
        <no-step-log value="true"/>
    </report>

    <traci_server>
        <remote-port value="49423"/>-->

<tripinfos xmlns:xsi="http://www.w3.org/2001/XMLSchema-instance" xsi:noNamespaceSchemaLocation="http://sumo.dlr.de/xsd/tripinfo_file.xsd">
</tripinfos>
lns:xsi="http://www.w3.org/2001/XMLSchema-instance" xsi:noNamespaceSchemaLocation="http://sumo.dlr.de/xsd/tripinfo_file.xsd">
    <tripinfo id="Rflow.0" depart="0.00" departLane="startR_0" departPos="5.10" departSpeed="0.00" departDelay="0.00" arrival="149.00" arrivalLane="goal_0" arrivalPos="497.94" arrivalSpeed="13.45" duration="149.00" routeLength="1899.30" waitingTime="0.00" waitingCount="0" stopTime="0.00" timeLoss="10.99" rerouteNo="1" devices="tripinfo_Rflow.0 routing_Rflow.0" vType="noVar" speedFactor="1.00" vaporized=""/>
    <tripinfo id="Rflow.1" depart="10.00" departLane="startR_0" departPos="5.10" departSpeed="0.00" departDelay="0.00" arrival="158.00" arrivalLane="goal_0" arrivalPos="497.94" arrivalSpeed="12.82" duration="148.00" routeLength="1899.30" waitingTime="0.00" waitingCount="0" stopTime="0.00" timeLoss="10.16" rerouteNo="1" devices="tripinfo_Rflow.1 routing_Rflow.1" vType="noVar" speedFactor="1.00" vaporized=""/>
    <tripinfo id="Lflow.0" depart="0.00" departLane="startL_0" departPos="5.10" departSpeed="0.00" departDelay="0.00" arrival="171.00" arrivalLane="goal_0" arrivalPos="497.94" arrivalSpeed="12.70" duration="171.00" routeLength="1837.90" waitingTime="25.00" waitingCount="1" stopTime="0.00" timeLoss="38.28" rerouteNo="2" devices="tripinfo_Lflow.0 routing_Lflow.0" vType="noVar" speedFactor="1.00" vaporized=""/>
    <tripinfo id="Rflow.0" depart="0.00" departLane="startR_0" departPos="5.10" departSpeed="0.00" departDelay="0.00" arrival="149.00" arrivalLane="goal_0" arrivalPos="497.94" arrivalSpeed="13.16" duration="149.00" routeLength="1899.30" waitingTime="0.00" waitingCount="0" stopTime="0.00" timeLoss="11.80" rerouteNo="1" devices="tripinfo_Rflow.0 routing_Rflow.0" vType="noVar" speedFactor="1.00" vaporized=""/>
    <tripinfo id="Rflow.1" depart="10.00" departLane="startR_0" departPos="5.10" departSpeed="0.00" departDelay="0.00" arrival="158.00" arrivalLane="goal_0" arrivalPos="497.94" arrivalSpeed="13.20" duration="148.00" routeLength="1899.30" waitingTime="0.00" waitingCount="0" stopTime="0.00" timeLoss="10.80" rerouteNo="1" devices="tripinfo_Rflow.1 routing_Rflow.1" vType="noVar" speedFactor="1.00" vaporized=""/>
    <tripinfo id="Rflow.0" depart="0.00" departLane="startR_0" departPos="5.10" departSpeed="0.00" departDelay="0.00" arrival="149.00" arrivalLane="goal_0" arrivalPos="497.94" arrivalSpeed="13.76" duration="149.00" routeLength="1899.30" waitingTime="0.00" waitingCount="0" stopTime="0.00" timeLoss="10.95" rerouteNo="1" devices="tripinfo_Rflow.0 routing_Rflow.0" vType="noVar" speedFactor="1.00" vaporized=""/>
    <tripinfo id="Rflow.1" depart="10.00" departLane="startR_0" departPos="5.10" departSpeed="0.00" departDelay="0.00" arrival="159.00" arrivalLane="goal_0" arrivalPos="497.94" arrivalSpeed="13.59" duration="149.00" routeLength="1899.30" waitingTime="0.00" waitingCount="0" stopTime="0.00" timeLoss="11.21" rerouteNo="1" devices="tripinfo_Rflow.1 routing_Rflow.1" vType="noVar" speedFactor="1.00" vaporized=""/>
    <tripinfo id="Lflow.0" depart="0.00" departLane="startL_0" departPos="5.10" departSpeed="0.00" departDelay="0.00" arrival="172.00" arrivalLane="goal_0" arrivalPos="497.94" arrivalSpeed="12.75" duration="172.00" routeLength="1837.90" waitingTime="24.00" waitingCount="1" stopTime="0.00" timeLoss="39.00" rerouteNo="3" devices="tripinfo_Lflow.0 routing_Lflow.0" vType="noVar" speedFactor="1.00" vaporized=""/>
    <tripinfo id="Rflow.0" depart="0.00" departLane="startR_0" departPos="5.10" departSpeed="0.00" departDelay="0.00" arrival="149.00" arrivalLane="goal_0" arrivalPos="497.94" arrivalSpeed="12.77" duration="149.00" routeLength="1899.30" waitingTime="0.00" waitingCount="0" stopTime="0.00" timeLoss="11.96" rerouteNo="1" devices="tripinfo_Rflow.0 routing_Rflow.0" vType="noVar" speedFactor="1.00" vaporized=""/>
    <tripinfo id="Rflow.1" depart="10.00" departLane="startR_0" departPos="5.10" departSpeed="0.00" departDelay="0.00" arrival="158.00" arrivalLane="goal_0" arrivalPos="497.94" arrivalSpeed="13.53" duration="148.00" routeLength="1899.30" waitingTime="0.00" waitingCount="0" stopTime="0.00" timeLoss="10.67" rerouteNo="1" devices="tripinfo_Rflow.1 routing_Rflow.1" vType="noVar" speedFactor="1.00" vaporized=""/>
    <tripinfo id="Rflow.0" depart="0.00" departLane="startR_0" departPos="5.10" departSpeed="0.00" departDelay="0.00" arrival="149.00" arrivalLane="goal_0" arrivalPos="497.94" arrivalSpeed="13.38" duration="149.00" routeLength="1899.30" waitingTime="0.00" waitingCount="0" stopTime="0.00" timeLoss="11.99" rerouteNo="2" devices="tripinfo_Rflow.0 routing_Rflow.0" vType="noVar" speedFactor="1.00" vaporized=""/>
    <tripinfo id="Rflow.0" depart="0.00" departLane="startR_0" departPos="5.10" departSpeed="0.00" departDelay="0.00" arrival="149.00" arrivalLane="goal_0" arrivalPos="497.94" arrivalSpeed="12.83" duration="149.00" routeLength="1899.30" waitingTime="0.00" waitingCount="0" stopTime="0.00" timeLoss="11.44" rerouteNo="2" devices="tripinfo_Rflow.0 routing_Rflow.0" vType="noVar" speedFactor="1.00" vaporized=""/>
    <tripinfo id="Rflow.1" depart="10.00" departLane="startR_0" departPos="5.10" departSpeed="0.00" departDelay="0.00" arrival="158.00" arrivalLane="goal_0" arrivalPos="497.94" arrivalSpeed="13.88" duration="148.00" routeLength="1899.30" waitingTime="0.00" waitingCount="0" stopTime="0.00" timeLoss="10.97" rerouteNo="2" devices="tripinfo_Rflow.1 routing_Rflow.1" vType="noVar" speedFactor="1.00" vaporized=""/>
    <tripinfo id="Rflow.0" depart="0.00" departLane="startR_0" departPos="5.10" departSpeed="0.00" departDelay="0.00" arrival="149.00" arrivalLane="goal_0" arrivalPos="497.94" arrivalSpeed="13.27" duration="149.00" routeLength="1899.30" waitingTime="0.00" waitingCount="0" stopTime="0.00" timeLoss="11.93" rerouteNo="2" devices="tripinfo_Rflow.0 routing_Rflow.0" vType="noVar" speedFactor="1.00" vaporized=""/>
    <tripinfo id="Rflow.0" depart="0.00" departLane="startR_0" departPos="5.10" departSpeed="0.00" departDelay="0.00" arrival="149.00" arrivalLane="goal_0" arrivalPos="497.94" arrivalSpeed="13.48" duration="149.00" routeLength="1899.30" waitingTime="0.00" waitingCount="0" stopTime="0.00" timeLoss="11.55" rerouteNo="2" devices="tripinfo_Rflow.0 routing_Rflow.0" vType="noVar" speedFactor="1.00" vaporized=""/>
    <tripinfo id="Rflow.1" depart="10.00" departLane="startR_0" departPos="5.10" departSpeed="0.00" departDelay="0.00" arrival="159.00" arrivalLane="goal_0" arrivalPos="497.94" arrivalSpeed="13.04" duration="149.00" routeLength="1899.30" waitingTime="0.00" waitingCount="0" stopTime="0.00" timeLoss="11.16" rerouteNo="2" devices="tripinfo_Rflow.1 routing_Rflow.1" vType="noVar" speedFactor="1.00" vaporized=""/>
    <tripinfo id="Rflow.2" depart="20.00" departLane="startR_0" departPos="5.10" departSpeed="0.00" departDelay="0.00" arrival="168.00" arrivalLane="goal_0" arrivalPos="497.94" arrivalSpeed="13.73" duration="148.00" routeLength="1899.30" waitingTime="0.00" waitingCount="0" stopTime="0.00" timeLoss="10.62" rerouteNo="1" devices="tripinfo_Rflow.2 routing_Rflow.2" vType="noVar" speedFactor="1.00" vaporized=""/>
    <tripinfo id="Lflow.0" depart="0.00" departLane="startL_0" departPos="5.10" departSpeed="0.00" departDelay="0.00" arrival="172.00" arrivalLane="goal_0" arrivalPos="497.94" arrivalSpeed="12.98" duration="172.00" routeLength="1837.90" waitingTime="25.00" waitingCount="1" stopTime="0.00" timeLoss="39.06" rerouteNo="3" devices="tripinfo_Lflow.0 routing_Lflow.0" vType="noVar" speedFactor="1.00" vaporized=""/>
    <tripinfo id="Lflow.1" depart="10.00" departLane="startL_0" departPos="5.10" departSpeed="0.00" departDelay="0.00" arrival="175.00" arrivalLane="goal_0" arrivalPos="497.94" arrivalSpeed="13.48" duration="165.00" routeLength="1837.90" waitingTime="17.00" waitingCount="1" stopTime="0.00" timeLoss="31.29" rerouteNo="2" devices="tripinfo_Lflow.1 routing_Lflow.1" vType="noVar" speedFactor="1.00" vaporized=""/>
    <tripinfo id="Rflow.0" depart="0.00" departLane="startR_0" departPos="5.10" departSpeed="0.00" departDelay="0.00" arrival="149.00" arrivalLane="goal_0" arrivalPos="497.94" arrivalSpeed="13.60" duration="149.00" routeLength="1899.30" waitingTime="0.00" waitingCount="0" stopTime="0.00" timeLoss="11.67" rerouteNo="2" devices="tripinfo_Rflow.0 routing_Rflow.0" vType="noVar" speedFactor="1.00" vaporized=""/>
    <tripinfo id="Rflow.1" depart="10.00" departLane="startR_0" departPos="5.10" departSpeed="0.00" departDelay="0.00" arrival="158.00" arrivalLane="goal_0" arrivalPos="497.94" arrivalSpeed="12.86" duration="148.00" routeLength="1899.30" waitingTime="0.00" waitingCount="0" stopTime="0.00" timeLoss="10.95" rerouteNo="2" devices="tripinfo_Rflow.1 routing_Rflow.1" vType="noVar" speedFactor="1.00" vaporized=""/>
    <tripinfo id="Rflow.2" depart="20.00" departLane="startR_0" departPos="5.10" departSpeed="0.00" departDelay="0.00" arrival="169.00" arrivalLane="goal_0" arrivalPos="497.94" arrivalSpeed="13.70" duration="149.00" routeLength="1899.30" waitingTime="0.00" waitingCount="0" stopTime="0.00" timeLoss="11.16" rerouteNo="1" devices="tripinfo_Rflow.2 routing_Rflow.2" vType="noVar" speedFactor="1.00" vaporized=""/>
    <tripinfo id="Lflow.0" depart="0.00" departLane="startL_0" departPos="5.10" departSpeed="0.00" departDelay="0.00" arrival="173.00" arrivalLane="goal_0" arrivalPos="497.94" arrivalSpeed="13.15" duration="173.00" routeLength="1837.90" waitingTime="25.00" waitingCount="1" stopTime="0.00" timeLoss="39.50" rerouteNo="3" devices="tripinfo_Lflow.0 routing_Lflow.0" vType="noVar" speedFactor="1.00" vaporized=""/>
    <tripinfo id="Rflow.0" depart="0.00" departLane="startR_0" departPos="5.10" departSpeed="0.00" departDelay="0.00" arrival="149.00" arrivalLane="goal_0" arrivalPos="497.94" arrivalSpeed="13.79" duration="149.00" routeLength="1899.30" waitingTime="0.00" waitingCount="0" stopTime="0.00" timeLoss="11.13" rerouteNo="2" devices="tripinfo_Rflow.0 routing_Rflow.0" vType="noVar" speedFactor="1.00" vaporized=""/>
    <tripinfo id="Rflow.1" depart="10.00" departLane="startR_0" departPos="5.10" departSpeed="0.00" departDelay="0.00" arrival="159.00" arrivalLane="goal_0" arrivalPos="497.94" arrivalSpeed="13.06" duration="149.00" routeLength="1899.30" waitingTime="0.00" waitingCount="0" stopTime="0.00" timeLoss="11.44" rerouteNo="3" devices="tripinfo_Rflow.1 routing_Rflow.1" vType="noVar" speedFactor="1.00" vaporized=""/>
    <tripinfo id="Rflow.0" depart="0.00" departLane="startR_0" departPos="5.10" departSpeed="0.00" departDelay="0.00" arrival="149.00" arrivalLane="goal_0" arrivalPos="497.94" arrivalSpeed="13.89" duration="149.00" routeLength="1899.30" waitingTime="0.00" waitingCount="0" stopTime="0.00" timeLoss="11.14" rerouteNo="2" devices="tripinfo_Rflow.0 routing_Rflow.0" vType="noVar" speedFactor="1.00" vaporized=""/>
    <tripinfo id="Rflow.0" depart="0.00" departLane="startR_0" departPos="5.10" departSpeed="0.00" departDelay="0.00" arrival="149.00" arrivalLane="goal_0" arrivalPos="497.94" arrivalSpeed="12.99" duration="149.00" routeLength="1899.30" waitingTime="0.00" waitingCount="0" stopTime="0.00" timeLoss="11.65" rerouteNo="2" devices="tripinfo_Rflow.0 routing_Rflow.0" vType="noVar" speedFactor="1.00" vaporized=""/>
    <tripinfo id="Rflow.1" depart="10.00" departLane="startR_0" departPos="5.10" departSpeed="0.00" departDelay="0.00" arrival="158.00" arrivalLane="goal_0" arrivalPos="497.94" arrivalSpeed="12.85" duration="148.00" routeLength="1899.30" waitingTime="0.00" waitingCount="0" stopTime="0.00" timeLoss="10.62" rerouteNo="3" devices="tripinfo_Rflow.1 routing_Rflow.1" vType="noVar" speedFactor="1.00" vaporized=""/>
    <tripinfo id="Rflow.2" depart="20.00" departLane="startR_0" departPos="5.10" departSpeed="0.00" departDelay="0.00" arrival="168.00" arrivalLane="goal_0" arrivalPos="497.94" arrivalSpeed="13.18" duration="148.00" routeLength="1899.30" waitingTime="0.00" waitingCount="0" stopTime="0.00" timeLoss="10.72" rerouteNo="1" devices="tripinfo_Rflow.2 routing_Rflow.2" vType="noVar" speedFactor="1.00" vaporized=""/>
    <tripinfo id="Lflow.0" depart="0.00" departLane="startL_0" departPos="5.10" departSpeed="0.00" departDelay="0.00" arrival="173.00" arrivalLane="goal_0" arrivalPos="497.94" arrivalSpeed="12.97" duration="173.00" routeLength="1837.90" waitingTime="25.00" waitingCount="1" stopTime="0.00" timeLoss="39.16" rerouteNo="3" devices="tripinfo_Lflow.0 routing_Lflow.0" vType="noVar" speedFactor="1.00" vaporized=""/>
    <tripinfo id="Lflow.1" depart="10.00" departLane="startL_0" departPos="5.10" departSpeed="0.00" departDelay="0.00" arrival="175.00" arrivalLane="goal_0" arrivalPos="497.94" arrivalSpeed="13.16" duration="165.00" routeLength="1837.90" waitingTime="14.00" waitingCount="1" stopTime="0.00" timeLoss="31.44" rerouteNo="2" devices="tripinfo_Lflow.1 routing_Lflow.1" vType="noVar" speedFactor="1.00" vaporized=""/>
    <tripinfo id="Lflow.2" depart="20.00" departLane="startL_0" departPos="5.10" departSpeed="0.00" departDelay="0.00" arrival="178.00" arrivalLane="goal_0" arrivalPos="497.94" arrivalSpeed="12.75" duration="158.00" routeLength="1837.90" waitingTime="7.00" waitingCount="1" stopTime="0.00" timeLoss="24.36" rerouteNo="2" devices="tripinfo_Lflow.2 routing_Lflow.2" vType="noVar" speedFactor="1.00" vaporized=""/>
    <tripinfo id="Rflow.0" depart="0.00" departLane="startR_0" departPos="5.10" departSpeed="0.00" departDelay="0.00" arrival="150.00" arrivalLane="goal_0" arrivalPos="497.94" arrivalSpeed="13.07" duration="150.00" routeLength="1899.30" waitingTime="0.00" waitingCount="0" stopTime="0.00" timeLoss="12.13" rerouteNo="2" devices="tripinfo_Rflow.0 routing_Rflow.0" vType="noVar" speedFactor="1.00" vaporized=""/>
    <tripinfo id="Rflow.1" depart="10.00" departLane="startR_0" departPos="5.10" departSpeed="0.00" departDelay="0.00" arrival="158.00" arrivalLane="goal_0" arrivalPos="497.94" arrivalSpeed="13.20" duration="148.00" routeLength="1899.30" waitingTime="0.00" waitingCount="0" stopTime="0.00" timeLoss="10.85" rerouteNo="3" devices="tripinfo_Rflow.1 routing_Rflow.1" vType="noVar" speedFactor="1.00" vaporized=""/>
    <tripinfo id="Rflow.2" depart="20.00" departLane="startR_0" departPos="5.10" departSpeed="0.00" departDelay="0.00" arrival="168.00" arrivalLane="goal_0" arrivalPos="497.94" arrivalSpeed="13.57" duration="148.00" routeLength="1899.30" waitingTime="0.00" waitingCount="0" stopTime="0.00" timeLoss="10.61" rerouteNo="1" devices="tripinfo_Rflow.2 routing_Rflow.2" vType="noVar" speedFactor="1.00" vaporized=""/>
    <tripinfo id="Lflow.0" depart="0.00" departLane="startL_0" departPos="5.10" departSpeed="0.00" departDelay="0.00" arrival="173.00" arrivalLane="goal_0" arrivalPos="497.94" arrivalSpeed="12.91" duration="173.00" routeLength="1837.90" waitingTime="25.00" waitingCount="1" stopTime="0.00" timeLoss="40.48" rerouteNo="3" devices="tripinfo_Lflow.0 routing_Lflow.0" vType="noVar" speedFactor="1.00" vaporized=""/>
    <tripinfo id="Lflow.1" depart="10.00" departLane="startL_0" departPos="5.10" departSpeed="0.00" departDelay="0.00" arrival="175.00" arrivalLane="goal_0" arrivalPos="497.94" arrivalSpeed="13.24" duration="165.00" routeLength="1837.90" waitingTime="14.00" waitingCount="1" stopTime="0.00" timeLoss="31.88" rerouteNo="2" devices="tripinfo_Lflow.1 routing_Lflow.1" vType="noVar" speedFactor="1.00" vaporized=""/>
    <tripinfo id="Rflow.0" depart="0.00" departLane="startR_0" departPos="5.10" departSpeed="0.00" departDelay="0.00" arrival="149.00" arrivalLane="goal_0" arrivalPos="497.94" arrivalSpeed="13.24" duration="149.00" routeLength="1899.30" waitingTime="0.00" waitingCount="0" stopTime="0.00" timeLoss="11.32" rerouteNo="2" devices="tripinfo_Rflow.0 routing_Rflow.0" vType="noVar" speedFactor="1.00" vaporized=""/>
    <tripinfo id="Rflow.1" depart="10.00" departLane="startR_0" departPos="5.10" departSpeed="0.00" departDelay="0.00" arrival="158.00" arrivalLane="goal_0" arrivalPos="497.94" arrivalSpeed="12.78" duration="148.00" routeLength="1899.30" waitingTime="0.00" waitingCount="0" stopTime="0.00" timeLoss="10.94" rerouteNo="3" devices="tripinfo_Rflow.1 routing_Rflow.1" vType="noVar" speedFactor="1.00" vaporized=""/>
    <tripinfo id="Rflow.2" depart="20.00" departLane="startR_0" departPos="5.10" departSpeed="0.00" departDelay="0.00" arrival="169.00" arrivalLane="goal_0" arrivalPos="497.94" arrivalSpeed="12.69" duration="149.00" routeLength="1899.30" waitingTime="0.00" waitingCount="0" stopTime="0.00" timeLoss="10.88" rerouteNo="2" devices="tripinfo_Rflow.2 routing_Rflow.2" vType="noVar" speedFactor="1.00" vaporized=""/>
    <tripinfo id="Rflow.0" depart="0.00" departLane="startR_0" departPos="5.10" departSpeed="0.00" departDelay="0.00" arrival="149.00" arrivalLane="goal_0" arrivalPos="497.94" arrivalSpeed="13.23" duration="149.00" routeLength="1899.30" waitingTime="0.00" waitingCount="0" stopTime="0.00" timeLoss="10.88" rerouteNo="2" devices="tripinfo_Rflow.0 routing_Rflow.0" vType="noVar" speedFactor="1.00" vaporized=""/>
    <tripinfo id="Rflow.1" depart="10.00" departLane="startR_0" departPos="5.10" departSpeed="0.00" departDelay="0.00" arrival="158.00" arrivalLane="goal_0" arrivalPos="497.94" arrivalSpeed="13.15" duration="148.00" routeLength="1899.30" waitingTime="0.00" waitingCount="0" stopTime="0.00" timeLoss="10.96" rerouteNo="3" devices="tripinfo_Rflow.1 routing_Rflow.1" vType="noVar" speedFactor="1.00" vaporized=""/>
    <tripinfo id="Rflow.0" depart="0.00" departLane="startR_0" departPos="5.10" departSpeed="0.00" departDelay="0.00" arrival="149.00" arrivalLane="goal_0" arrivalPos="497.94" arrivalSpeed="13.01" duration="149.00" routeLength="1899.30" waitingTime="0.00" waitingCount="0" stopTime="0.00" timeLoss="11.21" rerouteNo="2" devices="tripinfo_Rflow.0 routing_Rflow.0" vType="noVar" speedFactor="1.00" vaporized=""/>
    <tripinfo id="Rflow.1" depart="10.00" departLane="startR_0" departPos="5.10" departSpeed="0.00" departDelay="0.00" arrival="159.00" arrivalLane="goal_0" arrivalPos="497.94" arrivalSpeed="12.91" duration="149.00" routeLength="1899.30" waitingTime="0.00" waitingCount="0" stopTime="0.00" timeLoss="11.33" rerouteNo="3" devices="tripinfo_Rflow.1 routing_Rflow.1" vType="noVar" speedFactor="1.00" vaporized=""/>
    <tripinfo id="Rflow.2" depart="20.00" departLane="startR_0" departPos="5.10" departSpeed="0.00" departDelay="0.00" arrival="168.00" arrivalLane="goal_0" arrivalPos="497.94" arrivalSpeed="13.17" duration="148.00" routeLength="1899.30" waitingTime="0.00" waitingCount="0" stopTime="0.00" timeLoss="10.73" rerouteNo="2" devices="tripinfo_Rflow.2 routing_Rflow.2" vType="noVar" speedFactor="1.00" vaporized=""/>
    <tripinfo id="Lflow.0" depart="0.00" departLane="startL_0" departPos="5.10" departSpeed="0.00" departDelay="0.00" arrival="173.00" arrivalLane="goal_0" arrivalPos="497.94" arrivalSpeed="13.23" duration="173.00" routeLength="1837.90" waitingTime="25.00" waitingCount="1" stopTime="0.00" timeLoss="39.51" rerouteNo="3" devices="tripinfo_Lflow.0 routing_Lflow.0" vType="noVar" speedFactor="1.00" vaporized=""/>
    <tripinfo id="Lflow.1" depart="10.00" departLane="startL_0" departPos="5.10" departSpeed="0.00" departDelay="0.00" arrival="175.00" arrivalLane="goal_0" arrivalPos="497.94" arrivalSpeed="12.70" duration="165.00" routeLength="1837.90" waitingTime="14.00" waitingCount="1" stopTime="0.00" timeLoss="32.18" rerouteNo="2" devices="tripinfo_Lflow.1 routing_Lflow.1" vType="noVar" speedFactor="1.00" vaporized=""/>
    <tripinfo id="Lflow.2" depart="20.00" departLane="startL_0" departPos="5.10" departSpeed="0.00" departDelay="0.00" arrival="178.00" arrivalLane="goal_0" arrivalPos="497.94" arrivalSpeed="13.69" duration="158.00" routeLength="1837.90" waitingTime="7.00" waitingCount="1" stopTime="0.00" timeLoss="24.34" rerouteNo="3" devices="tripinfo_Lflow.2 routing_Lflow.2" vType="noVar" speedFactor="1.00" vaporized=""/>
    <tripinfo id="Rflow.0" depart="0.00" departLane="startR_0" departPos="5.10" departSpeed="0.00" departDelay="0.00" arrival="149.00" arrivalLane="goal_0" arrivalPos="497.94" arrivalSpeed="13.23" duration="149.00" routeLength="1899.30" waitingTime="0.00" waitingCount="0" stopTime="0.00" timeLoss="11.68" rerouteNo="2" devices="tripinfo_Rflow.0 routing_Rflow.0" vType="noVar" speedFactor="1.00" vaporized=""/>
    <tripinfo id="Rflow.1" depart="10.00" departLane="startR_0" departPos="5.10" departSpeed="0.00" departDelay="0.00" arrival="158.00" arrivalLane="goal_0" arrivalPos="497.94" arrivalSpeed="13.62" duration="148.00" routeLength="1899.30" waitingTime="0.00" waitingCount="0" stopTime="0.00" timeLoss="10.51" rerouteNo="3" devices="tripinfo_Rflow.1 routing_Rflow.1" vType="noVar" speedFactor="1.00" vaporized=""/>
    <tripinfo id="Rflow.2" depart="20.00" departLane="startR_0" departPos="5.10" departSpeed="0.00" departDelay="0.00" arrival="169.00" arrivalLane="goal_0" arrivalPos="497.94" arrivalSpeed="13.77" duration="149.00" routeLength="1899.30" waitingTime="0.00" waitingCount="0" stopTime="0.00" timeLoss="11.38" rerouteNo="2" devices="tripinfo_Rflow.2 routing_Rflow.2" vType="noVar" speedFactor="1.00" vaporized=""/>
    <tripinfo id="Lflow.0" depart="0.00" departLane="startL_0" departPos="5.10" departSpeed="0.00" departDelay="0.00" arrival="172.00" arrivalLane="goal_0" arrivalPos="497.94" arrivalSpeed="13.75" duration="172.00" routeLength="1837.90" waitingTime="25.00" waitingCount="1" stopTime="0.00" timeLoss="39.09" rerouteNo="3" devices="tripinfo_Lflow.0 routing_Lflow.0" vType="noVar" speedFactor="1.00" vaporized=""/>
    <tripinfo id="Lflow.1" depart="10.00" departLane="startL_0" departPos="5.10" departSpeed="0.00" departDelay="0.00" arrival="176.00" arrivalLane="goal_0" arrivalPos="497.94" arrivalSpeed="13.88" duration="166.00" routeLength="1837.90" waitingTime="14.00" waitingCount="1" stopTime="0.00" timeLoss="32.56" rerouteNo="2" devices="tripinfo_Lflow.1 routing_Lflow.1" vType="noVar" speedFactor="1.00" vaporized=""/>
    <tripinfo id="Rflow.0" depart="0.00" departLane="startR_0" departPos="5.10" departSpeed="0.00" departDelay="0.00" arrival="149.00" arrivalLane="goal_0" arrivalPos="497.94" arrivalSpeed="13.28" duration="149.00" routeLength="1899.30" waitingTime="0.00" waitingCount="0" stopTime="0.00" timeLoss="11.84" rerouteNo="2" devices="tripinfo_Rflow.0 routing_Rflow.0" vType="noVar" speedFactor="1.00" vaporized=""/>
    <tripinfo id="Rflow.1" depart="10.00" departLane="startR_0" departPos="5.10" departSpeed="0.00" departDelay="0.00" arrival="158.00" arrivalLane="goal_0" arrivalPos="497.94" arrivalSpeed="13.33" duration="148.00" routeLength="1899.30" waitingTime="0.00" waitingCount="0" stopTime="0.00" timeLoss="10.23" rerouteNo="3" devices="tripinfo_Rflow.1 routing_Rflow.1" vType="noVar" speedFactor="1.00" vaporized=""/>
    <tripinfo id="Rflow.2" depart="20.00" departLane="startR_0" departPos="5.10" departSpeed="0.00" departDelay="0.00" arrival="168.00" arrivalLane="goal_0" arrivalPos="497.94" arrivalSpeed="13.76" duration="148.00" routeLength="1899.30" waitingTime="0.00" waitingCount="0" stopTime="0.00" timeLoss="10.83" rerouteNo="3" devices="tripinfo_Rflow.2 routing_Rflow.2" vType="noVar" speedFactor="1.00" vaporized=""/>
    <tripinfo id="Rflow.0" depart="0.00" departLane="startR_0" departPos="5.10" departSpeed="0.00" departDelay="0.00" arrival="149.00" arrivalLane="goal_0" arrivalPos="497.94" arrivalSpeed="13.45" duration="149.00" routeLength="1899.30" waitingTime="0.00" waitingCount="0" stopTime="0.00" timeLoss="11.87" rerouteNo="2" devices="tripinfo_Rflow.0 routing_Rflow.0" vType="noVar" speedFactor="1.00" vaporized=""/>
    <tripinfo id="Rflow.1" depart="10.00" departLane="startR_0" departPos="5.10" departSpeed="0.00" departDelay="0.00" arrival="159.00" arrivalLane="goal_0" arrivalPos="497.94" arrivalSpeed="13.80" duration="149.00" routeLength="1899.30" waitingTime="0.00" waitingCount="0" stopTime="0.00" timeLoss="11.53" rerouteNo="3" devices="tripinfo_Rflow.1 routing_Rflow.1" vType="noVar" speedFactor="1.00" vaporized=""/>
    <tripinfo id="Rflow.0" depart="0.00" departLane="startR_0" departPos="5.10" departSpeed="0.00" departDelay="0.00" arrival="149.00" arrivalLane="goal_0" arrivalPos="497.94" arrivalSpeed="13.01" duration="149.00" routeLength="1899.30" waitingTime="0.00" waitingCount="0" stopTime="0.00" timeLoss="12.08" rerouteNo="2" devices="tripinfo_Rflow.0 routing_Rflow.0" vType="noVar" speedFactor="1.00" vaporized=""/>
    <tripinfo id="Rflow.1" depart="10.00" departLane="startR_0" departPos="5.10" departSpeed="0.00" departDelay="0.00" arrival="158.00" arrivalLane="goal_0" arrivalPos="497.94" arrivalSpeed="12.92" duration="148.00" routeLength="1899.30" waitingTime="0.00" waitingCount="0" stopTime="0.00" timeLoss="10.41" rerouteNo="3" devices="tripinfo_Rflow.1 routing_Rflow.1" vType="noVar" speedFactor="1.00" vaporized=""/>
    <tripinfo id="Rflow.2" depart="20.00" departLane="startR_0" departPos="5.10" departSpeed="0.00" departDelay="0.00" arrival="169.00" arrivalLane="goal_0" arrivalPos="497.94" arrivalSpeed="13.41" duration="149.00" routeLength="1899.30" waitingTime="0.00" waitingCount="0" stopTime="0.00" timeLoss="10.95" rerouteNo="3" devices="tripinfo_Rflow.2 routing_Rflow.2" vType="noVar" speedFactor="1.00" vaporized=""/>
    <tripinfo id="Lflow.0" depart="0.00" departLane="startL_0" departPos="5.10" departSpeed="0.00" departDelay="0.00" arrival="173.00" arrivalLane="goal_0" arrivalPos="497.94" arrivalSpeed="13.63" duration="173.00" routeLength="1837.90" waitingTime="25.00" waitingCount="1" stopTime="0.00" timeLoss="39.99" rerouteNo="3" devices="tripinfo_Lflow.0 routing_Lflow.0" vType="noVar" speedFactor="1.00" vaporized=""/>
    <tripinfo id="Lflow.1" depart="10.00" departLane="startL_0" departPos="5.10" departSpeed="0.00" departDelay="0.00" arrival="175.00" arrivalLane="goal_0" arrivalPos="497.94" arrivalSpeed="13.15" duration="165.00" routeLength="1837.90" waitingTime="14.00" waitingCount="1" stopTime="0.00" timeLoss="32.28" rerouteNo="2" devices="tripinfo_Lflow.1 routing_Lflow.1" vType="noVar" speedFactor="1.00" vaporized=""/>
    <tripinfo id="Lflow.2" depart="20.00" departLane="startL_0" departPos="5.10" departSpeed="0.00" departDelay="0.00" arrival="178.00" arrivalLane="goal_0" arrivalPos="497.94" arrivalSpeed="13.70" duration="158.00" routeLength="1837.90" waitingTime="7.00" waitingCount="1" stopTime="0.00" timeLoss="24.17" rerouteNo="3" devices="tripinfo_Lflow.2 routing_Lflow.2" vType="noVar" speedFactor="1.00" vaporized=""/>
    <tripinfo id="Lflow.3" depart="30.00" departLane="startL_0" departPos="5.10" departSpeed="0.00" departDelay="0.00" arrival="180.00" arrivalLane="goal_0" arrivalPos="497.94" arrivalSpeed="12.79" duration="150.00" routeLength="1837.90" waitingTime="0.00" waitingCount="0" stopTime="0.00" timeLoss="16.44" rerouteNo="1" devices="tripinfo_Lflow.3 routing_Lflow.3" vType="noVar" speedFactor="1.00" vaporized=""/>
    <tripinfo id="Sflow.1" depart="4.00" departLane="start_0" departPos="5.10" departSpeed="0.00" departDelay="0.67" arrival="222.00" arrivalLane="goal_0" arrivalPos="497.94" arrivalSpeed="12.68" duration="218.00" routeLength="2774.14" waitingTime="0.00" waitingCount="0" stopTime="0.00" timeLoss="16.69" rerouteNo="1" devices="tripinfo_Sflow.1 routing_Sflow.1" vType="noVar" speedFactor="1.00" vaporized=""/>
    <tripinfo id="Rflow.3" depart="30.00" departLane="startR_0" departPos="5.10" departSpeed="0.00" departDelay="0.00" arrival="224.00" arrivalLane="goal_0" arrivalPos="497.94" arrivalSpeed="12.82" duration="194.00" routeLength="1899.30" waitingTime="41.00" waitingCount="1" stopTime="0.00" timeLoss="56.49" rerouteNo="1" devices="tripinfo_Rflow.3 routing_Rflow.3" vType="noVar" speedFactor="1.00" vaporized=""/>
    <tripinfo id="Sflow.2" depart="7.00" departLane="start_0" departPos="5.10" departSpeed="0.00" departDelay="0.33" arrival="226.00" arrivalLane="goal_0" arrivalPos="497.94" arrivalSpeed="13.09" duration="219.00" routeLength="2774.14" waitingTime="0.00" waitingCount="0" stopTime="0.00" timeLoss="17.65" rerouteNo="1" devices="tripinfo_Sflow.2 routing_Sflow.2" vType="noVar" speedFactor="1.00" vaporized=""/>
    <tripinfo id="Sflow.3" depart="10.00" departLane="start_0" departPos="5.10" departSpeed="0.00" departDelay="0.00" arrival="228.00" arrivalLane="goal_0" arrivalPos="497.94" arrivalSpeed="13.07" duration="218.00" routeLength="2774.14" waitingTime="0.00" waitingCount="0" stopTime="0.00" timeLoss="16.78" rerouteNo="1" devices="tripinfo_Sflow.3 routing_Sflow.3" vType="noVar" speedFactor="1.00" vaporized=""/>