<?xml version="1.0" encoding="UTF-8"?>

<!-- generated on 2021-11-13 02:51:33 by Eclipse SUMO sumo Version 1.9.2
<configuration xmlns:xsi="http://www.w3.org/2001/XMLSchema-instance" xsi:noNamespaceSchemaLocation="http://sumo.dlr.de/xsd/sumoConfiguration.xsd">

    <input>
        <net-file value="shortlong.net.xml"/>
        <route-files value="shortlong.rou.xml"/>
        <additional-files value="additional.xml"/>
    </input>

    <output>
        <tripinfo-output value="tripinfo.xml"/>
    </output>

    <time>
        <begin value="0"/>
        <end value="10000"/>
        <step-length value="1"/>
    </time>

    <processing>
        <time-to-teleport value="1000"/>
    </processing>

    <report>
        <xml-validation value="never"/>
        <xml-validation.routes value="never"/>
        <no-step-log value="true"/>
    </report>

    <traci_server>
        <remote-port value="49327"/>-->

<tripinfos xmlns:xsi="http://www.w3.org/2001/XMLSchema-instance" xsi:noNamespaceSchemaLocation="http://sumo.dlr.de/xsd/tripinfo_file.xsd">
</tripinfos>
lns:xsi="http://www.w3.org/2001/XMLSchema-instance" xsi:noNamespaceSchemaLocation="http://sumo.dlr.de/xsd/tripinfo_file.xsd">
    <tripinfo id="Rflow.0" depart="0.00" departLane="startR_0" departPos="5.10" departSpeed="0.00" departDelay="0.00" arrival="149.00" arrivalLane="goal_0" arrivalPos="497.94" arrivalSpeed="12.89" duration="149.00" routeLength="1899.30" waitingTime="0.00" waitingCount="0" stopTime="0.00" timeLoss="11.19" rerouteNo="2" devices="tripinfo_Rflow.0 routing_Rflow.0" vType="noVar" speedFactor="1.00" vaporized=""/>
    <tripinfo id="Rflow.1" depart="10.00" departLane="startR_0" departPos="5.10" departSpeed="0.00" departDelay="0.00" arrival="158.00" arrivalLane="goal_0" arrivalPos="497.94" arrivalSpeed="12.88" duration="148.00" routeLength="1899.30" waitingTime="0.00" waitingCount="0" stopTime="0.00" timeLoss="10.73" rerouteNo="2" devices="tripinfo_Rflow.1 routing_Rflow.1" vType="noVar" speedFactor="1.00" vaporized=""/>
    <tripinfo id="Rflow.2" depart="20.00" departLane="startR_0" departPos="5.10" departSpeed="0.00" departDelay="0.00" arrival="168.00" arrivalLane="goal_0" arrivalPos="497.94" arrivalSpeed="13.79" duration="148.00" routeLength="1899.30" waitingTime="0.00" waitingCount="0" stopTime="0.00" timeLoss="10.82" rerouteNo="3" devices="tripinfo_Rflow.2 routing_Rflow.2" vType="noVar" speedFactor="1.00" vaporized=""/>
    <tripinfo id="Lflow.0" depart="0.00" departLane="startL_0" departPos="5.10" departSpeed="0.00" departDelay="0.00" arrival="172.00" arrivalLane="goal_0" arrivalPos="497.94" arrivalSpeed="13.60" duration="172.00" routeLength="1837.90" waitingTime="25.00" waitingCount="1" stopTime="0.00" timeLoss="38.98" rerouteNo="3" devices="tripinfo_Lflow.0 routing_Lflow.0" vType="noVar" speedFactor="1.00" vaporized=""/>
    <tripinfo id="Lflow.1" depart="10.00" departLane="startL_0" departPos="5.10" departSpeed="0.00" departDelay="0.00" arrival="175.00" arrivalLane="goal_0" arrivalPos="497.94" arrivalSpeed="12.65" duration="165.00" routeLength="1837.90" waitingTime="16.00" waitingCount="1" stopTime="0.00" timeLoss="31.74" rerouteNo="2" devices="tripinfo_Lflow.1 routing_Lflow.1" vType="noVar" speedFactor="1.00" vaporized=""/>
    <tripinfo id="Rflow.0" depart="0.00" departLane="startR_0" departPos="5.10" departSpeed="0.00" departDelay="0.00" arrival="149.00" arrivalLane="goal_0" arrivalPos="497.94" arrivalSpeed="13.40" duration="149.00" routeLength="1899.30" waitingTime="0.00" waitingCount="0" stopTime="0.00" timeLoss="11.46" rerouteNo="2" devices="tripinfo_Rflow.0 routing_Rflow.0" vType="noVar" speedFactor="1.00" vaporized=""/>
    <tripinfo id="Rflow.1" depart="10.00" departLane="startR_0" departPos="5.10" departSpeed="0.00" departDelay="0.00" arrival="158.00" arrivalLane="goal_0" arrivalPos="497.94" arrivalSpeed="13.78" duration="148.00" routeLength="1899.30" waitingTime="0.00" waitingCount="0" stopTime="0.00" timeLoss="10.70" rerouteNo="2" devices="tripinfo_Rflow.1 routing_Rflow.1" vType="noVar" speedFactor="1.00" vaporized=""/>
    <tripinfo id="Rflow.2" depart="20.00" departLane="startR_0" departPos="5.10" departSpeed="0.00" departDelay="0.00" arrival="169.00" arrivalLane="goal_0" arrivalPos="497.94" arrivalSpeed="13.33" duration="149.00" routeLength="1899.30" waitingTime="0.00" waitingCount="0" stopTime="0.00" timeLoss="11.69" rerouteNo="3" devices="tripinfo_Rflow.2 routing_Rflow.2" vType="noVar" speedFactor="1.00" vaporized=""/>
    <tripinfo id="Lflow.0" depart="0.00" departLane="startL_0" departPos="5.10" departSpeed="0.00" departDelay="0.00" arrival="173.00" arrivalLane="goal_0" arrivalPos="497.94" arrivalSpeed="12.76" duration="173.00" routeLength="1837.90" waitingTime="25.00" waitingCount="1" stopTime="0.00" timeLoss="39.33" rerouteNo="3" devices="tripinfo_Lflow.0 routing_Lflow.0" vType="noVar" speedFactor="1.00" vaporized=""/>
    <tripinfo id="Rflow.0" depart="0.00" departLane="startR_0" departPos="5.10" departSpeed="0.00" departDelay="0.00" arrival="149.00" arrivalLane="goal_0" arrivalPos="497.94" arrivalSpeed="12.71" duration="149.00" routeLength="1899.30" waitingTime="0.00" waitingCount="0" stopTime="0.00" timeLoss="11.68" rerouteNo="2" devices="tripinfo_Rflow.0 routing_Rflow.0" vType="noVar" speedFactor="1.00" vaporized=""/>
    <tripinfo id="Rflow.1" depart="10.00" departLane="startR_0" departPos="5.10" departSpeed="0.00" departDelay="0.00" arrival="158.00" arrivalLane="goal_0" arrivalPos="497.94" arrivalSpeed="12.99" duration="148.00" routeLength="1899.30" waitingTime="0.00" waitingCount="0" stopTime="0.00" timeLoss="11.08" rerouteNo="3" devices="tripinfo_Rflow.1 routing_Rflow.1" vType="noVar" speedFactor="1.00" vaporized=""/>
    <tripinfo id="Rflow.2" depart="20.00" departLane="startR_0" departPos="5.10" departSpeed="0.00" departDelay="0.00" arrival="169.00" arrivalLane="goal_0" arrivalPos="497.94" arrivalSpeed="12.65" duration="149.00" routeLength="1899.30" waitingTime="0.00" waitingCount="0" stopTime="0.00" timeLoss="11.27" rerouteNo="2" devices="tripinfo_Rflow.2 routing_Rflow.2" vType="noVar" speedFactor="1.00" vaporized=""/>
    <tripinfo id="Lflow.0" depart="0.00" departLane="startL_0" departPos="5.10" departSpeed="0.00" departDelay="0.00" arrival="173.00" arrivalLane="goal_0" arrivalPos="497.94" arrivalSpeed="13.49" duration="173.00" routeLength="1837.90" waitingTime="25.00" waitingCount="1" stopTime="0.00" timeLoss="39.34" rerouteNo="3" devices="tripinfo_Lflow.0 routing_Lflow.0" vType="noVar" speedFactor="1.00" vaporized=""/>
    <tripinfo id="Lflow.1" depart="10.00" departLane="startL_0" departPos="5.10" departSpeed="0.00" departDelay="0.00" arrival="175.00" arrivalLane="goal_0" arrivalPos="497.94" arrivalSpeed="13.53" duration="165.00" routeLength="1837.90" waitingTime="14.00" waitingCount="1" stopTime="0.00" timeLoss="31.18" rerouteNo="2" devices="tripinfo_Lflow.1 routing_Lflow.1" vType="noVar" speedFactor="1.00" vaporized=""/>
    <tripinfo id="Lflow.2" depart="20.00" departLane="startL_0" departPos="5.10" departSpeed="0.00" departDelay="0.00" arrival="177.00" arrivalLane="goal_0" arrivalPos="497.94" arrivalSpeed="13.60" duration="157.00" routeLength="1837.90" waitingTime="7.00" waitingCount="1" stopTime="0.00" timeLoss="23.98" rerouteNo="2" devices="tripinfo_Lflow.2 routing_Lflow.2" vType="noVar" speedFactor="1.00" vaporized=""/>
    <tripinfo id="Rflow.0" depart="0.00" departLane="startR_0" departPos="5.10" departSpeed="0.00" departDelay="0.00" arrival="149.00" arrivalLane="goal_0" arrivalPos="497.94" arrivalSpeed="12.96" duration="149.00" routeLength="1899.30" waitingTime="0.00" waitingCount="0" stopTime="0.00" timeLoss="11.61" rerouteNo="2" devices="tripinfo_Rflow.0 routing_Rflow.0" vType="noVar" speedFactor="1.00" vaporized=""/>
    <tripinfo id="Rflow.1" depart="10.00" departLane="startR_0" departPos="5.10" departSpeed="0.00" departDelay="0.00" arrival="159.00" arrivalLane="goal_0" arrivalPos="497.94" arrivalSpeed="12.62" duration="149.00" routeLength="1899.30" waitingTime="0.00" waitingCount="0" stopTime="0.00" timeLoss="11.61" rerouteNo="3" devices="tripinfo_Rflow.1 routing_Rflow.1" vType="noVar" speedFactor="1.00" vaporized=""/>
    <tripinfo id="Rflow.2" depart="20.00" departLane="startR_0" departPos="5.10" departSpeed="0.00" departDelay="0.00" arrival="168.00" arrivalLane="goal_0" arrivalPos="497.94" arrivalSpeed="13.14" duration="148.00" routeLength="1899.30" waitingTime="0.00" waitingCount="0" stopTime="0.00" timeLoss="10.75" rerouteNo="2" devices="tripinfo_Rflow.2 routing_Rflow.2" vType="noVar" speedFactor="1.00" vaporized=""/>
    <tripinfo id="Lflow.0" depart="0.00" departLane="startL_0" departPos="5.10" departSpeed="0.00" departDelay="0.00" arrival="173.00" arrivalLane="goal_0" arrivalPos="497.94" arrivalSpeed="13.19" duration="173.00" routeLength="1837.90" waitingTime="25.00" waitingCount="1" stopTime="0.00" timeLoss="39.64" rerouteNo="3" devices="tripinfo_Lflow.0 routing_Lflow.0" vType="noVar" speedFactor="1.00" vaporized=""/>
    <tripinfo id="Lflow.1" depart="10.00" departLane="startL_0" departPos="5.10" departSpeed="0.00" departDelay="0.00" arrival="176.00" arrivalLane="goal_0" arrivalPos="497.94" arrivalSpeed="12.78" duration="166.00" routeLength="1837.90" waitingTime="14.00" waitingCount="1" stopTime="0.00" timeLoss="32.55" rerouteNo="2" devices="tripinfo_Lflow.1 routing_Lflow.1" vType="noVar" speedFactor="1.00" vaporized=""/>
    <tripinfo id="Rflow.0" depart="0.00" departLane="startR_0" departPos="5.10" departSpeed="0.00" departDelay="0.00" arrival="149.00" arrivalLane="goal_0" arrivalPos="497.94" arrivalSpeed="13.45" duration="149.00" routeLength="1899.30" waitingTime="0.00" waitingCount="0" stopTime="0.00" timeLoss="11.54" rerouteNo="2" devices="tripinfo_Rflow.0 routing_Rflow.0" vType="noVar" speedFactor="1.00" vaporized=""/>
    <tripinfo id="Rflow.1" depart="10.00" departLane="startR_0" departPos="5.10" departSpeed="0.00" departDelay="0.00" arrival="159.00" arrivalLane="goal_0" arrivalPos="497.94" arrivalSpeed="13.45" duration="149.00" routeLength="1899.30" waitingTime="0.00" waitingCount="0" stopTime="0.00" timeLoss="11.03" rerouteNo="3" devices="tripinfo_Rflow.1 routing_Rflow.1" vType="noVar" speedFactor="1.00" vaporized=""/>
    <tripinfo id="Rflow.2" depart="20.00" departLane="startR_0" departPos="5.10" departSpeed="0.00" departDelay="0.00" arrival="168.00" arrivalLane="goal_0" arrivalPos="497.94" arrivalSpeed="13.69" duration="148.00" routeLength="1899.30" waitingTime="0.00" waitingCount="0" stopTime="0.00" timeLoss="10.89" rerouteNo="2" devices="tripinfo_Rflow.2 routing_Rflow.2" vType="noVar" speedFactor="1.00" vaporized=""/>
    <tripinfo id="Lflow.0" depart="0.00" departLane="startL_0" departPos="5.10" departSpeed="0.00" departDelay="0.00" arrival="174.00" arrivalLane="goal_0" arrivalPos="497.94" arrivalSpeed="13.25" duration="174.00" routeLength="1837.90" waitingTime="25.00" waitingCount="1" stopTime="0.00" timeLoss="40.56" rerouteNo="3" devices="tripinfo_Lflow.0 routing_Lflow.0" vType="noVar" speedFactor="1.00" vaporized=""/>
    <tripinfo id="Lflow.1" depart="10.00" departLane="startL_0" departPos="5.10" departSpeed="0.00" departDelay="0.00" arrival="175.00" arrivalLane="goal_1" arrivalPos="497.94" arrivalSpeed="12.83" duration="165.00" routeLength="1837.90" waitingTime="14.00" waitingCount="1" stopTime="0.00" timeLoss="32.08" rerouteNo="2" devices="tripinfo_Lflow.1 routing_Lflow.1" vType="noVar" speedFactor="1.00" vaporized=""/>
    <tripinfo id="Lflow.2" depart="20.00" departLane="startL_0" departPos="5.10" departSpeed="0.00" departDelay="0.00" arrival="178.00" arrivalLane="goal_0" arrivalPos="497.94" arrivalSpeed="13.48" duration="158.00" routeLength="1837.90" waitingTime="7.00" waitingCount="1" stopTime="0.00" timeLoss="24.46" rerouteNo="3" devices="tripinfo_Lflow.2 routing_Lflow.2" vType="noVar" speedFactor="1.00" vaporized=""/>
    <tripinfo id="Rflow.0" depart="0.00" departLane="startR_0" departPos="5.10" departSpeed="0.00" departDelay="0.00" arrival="149.00" arrivalLane="goal_0" arrivalPos="497.94" arrivalSpeed="13.45" duration="149.00" routeLength="1899.30" waitingTime="0.00" waitingCount="0" stopTime="0.00" timeLoss="11.20" rerouteNo="2" devices="tripinfo_Rflow.0 routing_Rflow.0" vType="noVar" speedFactor="1.00" vaporized=""/>
    <tripinfo id="Rflow.1" depart="10.00" departLane="startR_0" departPos="5.10" departSpeed="0.00" departDelay="0.00" arrival="158.00" arrivalLane="goal_0" arrivalPos="497.94" arrivalSpeed="13.85" duration="148.00" routeLength="1899.30" waitingTime="0.00" waitingCount="0" stopTime="0.00" timeLoss="10.73" rerouteNo="3" devices="tripinfo_Rflow.1 routing_Rflow.1" vType="noVar" speedFactor="1.00" vaporized=""/>
    <tripinfo id="Rflow.2" depart="20.00" departLane="startR_0" departPos="5.10" departSpeed="0.00" departDelay="0.00" arrival="169.00" arrivalLane="goal_0" arrivalPos="497.94" arrivalSpeed="13.72" duration="149.00" routeLength="1899.30" waitingTime="0.00" waitingCount="0" stopTime="0.00" timeLoss="10.97" rerouteNo="2" devices="tripinfo_Rflow.2 routing_Rflow.2" vType="noVar" speedFactor="1.00" vaporized=""/>
    <tripinfo id="Lflow.0" depart="0.00" departLane="startL_0" departPos="5.10" departSpeed="0.00" departDelay="0.00" arrival="171.00" arrivalLane="goal_0" arrivalPos="497.94" arrivalSpeed="13.10" duration="171.00" routeLength="1837.90" waitingTime="25.00" waitingCount="1" stopTime="0.00" timeLoss="38.41" rerouteNo="3" devices="tripinfo_Lflow.0 routing_Lflow.0" vType="noVar" speedFactor="1.00" vaporized=""/>
    <tripinfo id="Lflow.1" depart="10.00" departLane="startL_0" departPos="5.10" departSpeed="0.00" departDelay="0.00" arrival="175.00" arrivalLane="goal_0" arrivalPos="497.94" arrivalSpeed="13.80" duration="165.00" routeLength="1837.90" waitingTime="14.00" waitingCount="1" stopTime="0.00" timeLoss="31.15" rerouteNo="2" devices="tripinfo_Lflow.1 routing_Lflow.1" vType="noVar" speedFactor="1.00" vaporized=""/>
    <tripinfo id="Rflow.0" depart="0.00" departLane="startR_0" departPos="5.10" departSpeed="0.00" departDelay="0.00" arrival="149.00" arrivalLane="goal_0" arrivalPos="497.94" arrivalSpeed="13.76" duration="149.00" routeLength="1899.30" waitingTime="0.00" waitingCount="0" stopTime="0.00" timeLoss="11.82" rerouteNo="2" devices="tripinfo_Rflow.0 routing_Rflow.0" vType="noVar" speedFactor="1.00" vaporized=""/>
    <tripinfo id="Rflow.1" depart="10.00" departLane="startR_0" departPos="5.10" departSpeed="0.00" departDelay="0.00" arrival="158.00" arrivalLane="goal_0" arrivalPos="497.94" arrivalSpeed="13.51" duration="148.00" routeLength="1899.30" waitingTime="0.00" waitingCount="0" stopTime="0.00" timeLoss="10.59" rerouteNo="3" devices="tripinfo_Rflow.1 routing_Rflow.1" vType="noVar" speedFactor="1.00" vaporized=""/>
    <tripinfo id="Rflow.2" depart="20.00" departLane="startR_0" departPos="5.10" departSpeed="0.00" departDelay="0.00" arrival="168.00" arrivalLane="goal_0" arrivalPos="497.94" arrivalSpeed="13.09" duration="148.00" routeLength="1899.30" waitingTime="0.00" waitingCount="0" stopTime="0.00" timeLoss="11.10" rerouteNo="3" devices="tripinfo_Rflow.2 routing_Rflow.2" vType="noVar" speedFactor="1.00" vaporized=""/>
    <tripinfo id="Lflow.0" depart="0.00" departLane="startL_0" departPos="5.10" departSpeed="0.00" departDelay="0.00" arrival="172.00" arrivalLane="goal_0" arrivalPos="497.94" arrivalSpeed="13.00" duration="172.00" routeLength="1837.90" waitingTime="25.00" waitingCount="1" stopTime="0.00" timeLoss="39.15" rerouteNo="3" devices="tripinfo_Lflow.0 routing_Lflow.0" vType="noVar" speedFactor="1.00" vaporized=""/>
    <tripinfo id="Lflow.1" depart="10.00" departLane="startL_0" departPos="5.10" departSpeed="0.00" departDelay="0.00" arrival="175.00" arrivalLane="goal_0" arrivalPos="497.94" arrivalSpeed="13.87" duration="165.00" routeLength="1837.90" waitingTime="14.00" waitingCount="1" stopTime="0.00" timeLoss="32.37" rerouteNo="2" devices="tripinfo_Lflow.1 routing_Lflow.1" vType="noVar" speedFactor="1.00" vaporized=""/>
    <tripinfo id="Lflow.2" depart="20.00" departLane="startL_0" departPos="5.10" departSpeed="0.00" departDelay="0.00" arrival="178.00" arrivalLane="goal_0" arrivalPos="497.94" arrivalSpeed="13.50" duration="158.00" routeLength="1837.90" waitingTime="6.00" waitingCount="1" stopTime="0.00" timeLoss="24.29" rerouteNo="3" devices="tripinfo_Lflow.2 routing_Lflow.2" vType="noVar" speedFactor="1.00" vaporized=""/>
    <tripinfo id="Lflow.3" depart="30.00" departLane="startL_0" departPos="5.10" departSpeed="0.00" departDelay="0.00" arrival="180.00" arrivalLane="goal_0" arrivalPos="497.94" arrivalSpeed="12.65" duration="150.00" routeLength="1837.90" waitingTime="0.00" waitingCount="0" stopTime="0.00" timeLoss="16.85" rerouteNo="2" devices="tripinfo_Lflow.3 routing_Lflow.3" vType="noVar" speedFactor="1.00" vaporized=""/>
    <tripinfo id="Lflow.4" depart="40.00" departLane="startL_0" departPos="5.10" departSpeed="0.00" departDelay="0.00" arrival="184.00" arrivalLane="goal_0" arrivalPos="497.94" arrivalSpeed="13.02" duration="144.00" routeLength="1837.90" waitingTime="0.00" waitingCount="0" stopTime="0.00" timeLoss="10.36" rerouteNo="3" devices="tripinfo_Lflow.4 routing_Lflow.4" vType="noVar" speedFactor="1.00" vaporized=""/>
    <tripinfo id="Sflow.0" depart="0.00" departLane="start_0" departPos="5.10" departSpeed="0.00" departDelay="0.00" arrival="217.00" arrivalLane="goal_0" arrivalPos="497.94" arrivalSpeed="13.18" duration="217.00" routeLength="2774.14" waitingTime="0.00" waitingCount="0" stopTime="0.00" timeLoss="15.99" rerouteNo="4" devices="tripinfo_Sflow.0 routing_Sflow.0" vType="noVar" speedFactor="1.00" vaporized=""/>
    <tripinfo id="Rflow.3" depart="30.00" departLane="startR_0" departPos="5.10" departSpeed="0.00" departDelay="0.00" arrival="223.00" arrivalLane="goal_0" arrivalPos="497.94" arrivalSpeed="13.67" duration="193.00" routeLength="1899.30" waitingTime="40.00" waitingCount="1" stopTime="0.00" timeLoss="55.25" rerouteNo="1" devices="tripinfo_Rflow.3 routing_Rflow.3" vType="noVar" speedFactor="1.00" vaporized=""/>
    <tripinfo id="Rflow.4" depart="40.00" departLane="startR_0" departPos="5.10" departSpeed="0.00" departDelay="0.00" arrival="226.00" arrivalLane="goal_0" arrivalPos="497.94" arrivalSpeed="12.66" duration="186.00" routeLength="1899.30" waitingTime="32.00" waitingCount="1" stopTime="0.00" timeLoss="48.07" rerouteNo="1" devices="tripinfo_Rflow.4 routing_Rflow.4" vType="noVar" speedFactor="1.00" vaporized=""/>
    <tripinfo id="Sflow.3" depart="9.00" departLane="start_0" departPos="5.10" departSpeed="0.00" departDelay="1.50" arrival="228.00" arrivalLane="goal_0" arrivalPos="497.94" arrivalSpeed="12.69" duration="219.00" routeLength="2774.14" waitingTime="0.00" waitingCount="0" stopTime="0.00" timeLoss="17.83" rerouteNo="3" devices="tripinfo_Sflow.3 routing_Sflow.3" vType="noVar" speedFactor="1.00" vaporized=""/>
    <tripinfo id="Sflow.4" depart="12.00" departLane="start_0" departPos="5.10" departSpeed="0.00" departDelay="2.00" arrival="230.00" arrivalLane="goal_0" arrivalPos="497.94" arrivalSpeed="13.80" duration="218.00" routeLength="2774.14" waitingTime="0.00" waitingCount="0" stopTime="0.00" timeLoss="16.83" rerouteNo="5" devices="tripinfo_Sflow.4 routing_Sflow.4" vType="noVar" speedFactor="1.00" vaporized=""/>
    <tripinfo id="Sflow.5" depart="15.00" departLane="start_0" departPos="5.10" departSpeed="0.00" departDelay="2.50" arrival="233.00" arrivalLane="goal_0" arrivalPos="497.94" arrivalSpeed="13.57" duration="218.00" routeLength="2774.14" waitingTime="0.00" waitingCount="0" stopTime="0.00" timeLoss="17.39" rerouteNo="1" devices="tripinfo_Sflow.5 routing_Sflow.5" vType="noVar" speedFactor="1.00" vaporized=""/>
    <tripinfo id="Sflow.1" depart="3.00" departLane="start_0" departPos="5.10" departSpeed="0.00" departDelay="0.50" arrival="234.00" arrivalLane="goal_1" arrivalPos="497.94" arrivalSpeed="12.60" duration="231.00" routeLength="2953.61" waitingTime="0.00" waitingCount="0" stopTime="0.00" timeLoss="17.75" rerouteNo="4" devices="tripinfo_Sflow.1 routing_Sflow.1" vType="noVar" speedFactor="1.00" vaporized=""/>
    <tripinfo id="Sflow.6" depart="18.00" departLane="start_0" departPos="5.10" departSpeed="0.00" departDelay="3.00" arrival="236.00" arrivalLane="goal_0" arrivalPos="497.94" arrivalSpeed="12.96" duration="218.00" routeLength="2774.14" waitingTime="0.00" waitingCount="0" stopTime="0.00" timeLoss="17.00" rerouteNo="4" devices="tripinfo_Sflow.6 routing_Sflow.6" vType="noVar" speedFactor="1.00" vaporized=""/>
    <tripinfo id="Sflow.2" depart="6.00" departLane="start_0" departPos="5.10" departSpeed="0.00" departDelay="1.00" arrival="238.00" arrivalLane="goal_1" arrivalPos="497.94" arrivalSpeed="13.83" duration="232.00" routeLength="2953.61" waitingTime="0.00" waitingCount="0" stopTime="0.00" timeLoss="18.46" rerouteNo="2" devices="tripinfo_Sflow.2 routing_Sflow.2" vType="noVar" speedFactor="1.00" vaporized=""/>
    <tripinfo id="Sflow.7" depart="21.00" departLane="start_0" departPos="5.10" departSpeed="0.00" departDelay="3.50" arrival="238.00" arrivalLane="goal_0" arrivalPos="497.94" arrivalSpeed="13.24" duration="217.00" routeLength="2774.14" waitingTime="0.00" waitingCount="0" stopTime="0.00" timeLoss="15.84" rerouteNo="1" devices="tripinfo_Sflow.7 routing_Sflow.7" vType="noVar" speedFactor="1.00" vaporized=""/>
    <tripinfo id="Rflow.0" depart="0.00" departLane="startR_0" departPos="5.10" departSpeed="0.00" departDelay="0.00" arrival="149.00" arrivalLane="goal_0" arrivalPos="497.94" arrivalSpeed="13.15" duration="149.00" routeLength="1899.30" waitingTime="0.00" waitingCount="0" stopTime="0.00" timeLoss="11.52" rerouteNo="2" devices="tripinfo_Rflow.0 routing_Rflow.0" vType="noVar" speedFactor="1.00" vaporized=""/>
    <tripinfo id="Rflow.1" depart="10.00" departLane="startR_0" departPos="5.10" departSpeed="0.00" departDelay="0.00" arrival="158.00" arrivalLane="goal_0" arrivalPos="497.94" arrivalSpeed="12.78" duration="148.00" routeLength="1899.30" waitingTime="0.00" waitingCount="0" stopTime="0.00" timeLoss="10.52" rerouteNo="3" devices="tripinfo_Rflow.1 routing_Rflow.1" vType="noVar" speedFactor="1.00" vaporized=""/>
    <tripinfo id="Rflow.2" depart="20.00" departLane="startR_0" departPos="5.10" departSpeed="0.00" departDelay="0.00" arrival="169.00" arrivalLane="goal_0" arrivalPos="497.94" arrivalSpeed="13.51" duration="149.00" routeLength="1899.30" waitingTime="0.00" waitingCount="0" stopTime="0.00" timeLoss="11.42" rerouteNo="3" devices="tripinfo_Rflow.2 routing_Rflow.2" vType="noVar" speedFactor="1.00" vaporized=""/>
    <tripinfo id="Lflow.0" depart="0.00" departLane="startL_0" departPos="5.10" departSpeed="0.00" departDelay="0.00" arrival="173.00" arrivalLane="goal_0" arrivalPos="497.94" arrivalSpeed="12.62" duration="173.00" routeLength="1837.90" waitingTime="25.00" waitingCount="1" stopTime="0.00" timeLoss="39.50" rerouteNo="3" devices="tripinfo_Lflow.0 routing_Lflow.0" vType="noVar" speedFactor="1.00" vaporized=""/>
    <tripinfo id="Lflow.1" depart="10.00" departLane="startL_0" departPos="5.10" departSpeed="0.00" departDelay="0.00" arrival="175.00" arrivalLane="goal_0" arrivalPos="497.94" arrivalSpeed="12.71" duration="165.00" routeLength="1837.90" waitingTime="14.00" waitingCount="1" stopTime="0.00" timeLoss="31.61" rerouteNo="2" devices="tripinfo_Lflow.1 routing_Lflow.1" vType="noVar" speedFactor="1.00" vaporized=""/>
    <tripinfo id="Lflow.2" depart="20.00" departLane="startL_0" departPos="5.10" departSpeed="0.00" departDelay="0.00" arrival="177.00" arrivalLane="goal_0" arrivalPos="497.94" arrivalSpeed="13.82" duration="157.00" routeLength="1837.90" waitingTime="6.00" waitingCount="1" stopTime="0.00" timeLoss="24.40" rerouteNo="3" devices="tripinfo_Lflow.2 routing_Lflow.2" vType="noVar" speedFactor="1.00" vaporized=""/>
    <tripinfo id="Lflow.3" depart="30.00" departLane="startL_0" departPos="5.10" departSpeed="0.00" departDelay="0.00" arrival="179.00" arrivalLane="goal_0" arrivalPos="497.94" arrivalSpeed="13.35" duration="149.00" routeLength="1837.90" waitingTime="0.00" waitingCount="0" stopTime="0.00" timeLoss="15.72" rerouteNo="2" devices="tripinfo_Lflow.3 routing_Lflow.3" vType="noVar" speedFactor="1.00" vaporized=""/>
    <tripinfo id="Lflow.4" depart="40.00" departLane="startL_0" departPos="5.10" departSpeed="0.00" departDelay="0.00" arrival="183.00" arrivalLane="goal_0" arrivalPos="497.94" arrivalSpeed="13.88" duration="143.00" routeLength="1837.90" waitingTime="0.00" waitingCount="0" stopTime="0.00" timeLoss="9.80" rerouteNo="3" devices="tripinfo_Lflow.4 routing_Lflow.4" vType="noVar" speedFactor="1.00" vaporized=""/>
    <tripinfo id="Sflow.0" depart="0.00" departLane="start_0" departPos="5.10" departSpeed="0.00" departDelay="0.00" arrival="217.00" arrivalLane="goal_0" arrivalPos="497.94" arrivalSpeed="12.76" duration="217.00" routeLength="2774.14" waitingTime="0.00" waitingCount="0" stopTime="0.00" timeLoss="16.00" rerouteNo="4" devices="tripinfo_Sflow.0 routing_Sflow.0" vType="noVar" speedFactor="1.00" vaporized=""/>
    <tripinfo id="Sflow.1" depart="3.00" departLane="start_0" departPos="5.10" departSpeed="0.00" departDelay="0.50" arrival="220.00" arrivalLane="goal_0" arrivalPos="497.94" arrivalSpeed="13.85" duration="217.00" routeLength="2774.14" waitingTime="0.00" waitingCount="0" stopTime="0.00" timeLoss="16.06" rerouteNo="3" devices="tripinfo_Sflow.1 routing_Sflow.1" vType="noVar" speedFactor="1.00" vaporized=""/>
    <tripinfo id="Sflow.2" depart="6.00" departLane="start_0" departPos="5.10" departSpeed="0.00" departDelay="1.00" arrival="223.00" arrivalLane="goal_0" arrivalPos="497.94" arrivalSpeed="13.64" duration="217.00" routeLength="2774.14" waitingTime="0.00" waitingCount="0" stopTime="0.00" timeLoss="15.61" rerouteNo="2" devices="tripinfo_Sflow.2 routing_Sflow.2" vType="noVar" speedFactor="1.00" vaporized=""/>
    <tripinfo id="Rflow.0" depart="0.00" departLane="startR_0" departPos="5.10" departSpeed="0.00" departDelay="0.00" arrival="149.00" arrivalLane="goal_0" arrivalPos="497.94" arrivalSpeed="12.72" duration="149.00" routeLength="1899.30" waitingTime="0.00" waitingCount="0" stopTime="0.00" timeLoss="11.25" rerouteNo="2" devices="tripinfo_Rflow.0 routing_Rflow.0" vType="noVar" speedFactor="1.00" vaporized=""/>
    <tripinfo id="Rflow.1" depart="10.00" departLane="startR_0" departPos="5.10" departSpeed="0.00" departDelay="0.00" arrival="158.00" arrivalLane="goal_0" arrivalPos="497.94" arrivalSpeed="13.74" duration="148.00" routeLength="1899.30" waitingTime="0.00" waitingCount="0" stopTime="0.00" timeLoss="10.45" rerouteNo="3" devices="tripinfo_Rflow.1 routing_Rflow.1" vType="noVar" speedFactor="1.00" vaporized=""/>
    <tripinfo id="Rflow.2" depart="20.00" departLane="startR_0" departPos="5.10" departSpeed="0.00" departDelay="0.00" arrival="168.00" arrivalLane="goal_0" arrivalPos="497.94" arrivalSpeed="13.07" duration="148.00" routeLength="1899.30" waitingTime="0.00" waitingCount="0" stopTime="0.00" timeLoss="10.87" rerouteNo="3" devices="tripinfo_Rflow.2 routing_Rflow.2" vType="noVar" speedFactor="1.00" vaporized=""/>
    <tripinfo id="Lflow.0" depart="0.00" departLane="startL_0" departPos="5.10" departSpeed="0.00" departDelay="0.00" arrival="172.00" arrivalLane="goal_0" arrivalPos="497.94" arrivalSpeed="12.82" duration="172.00" routeLength="1837.90" waitingTime="25.00" waitingCount="1" stopTime="0.00" timeLoss="39.07" rerouteNo="3" devices="tripinfo_Lflow.0 routing_Lflow.0" vType="noVar" speedFactor="1.00" vaporized=""/>
    <tripinfo id="Lflow.1" depart="10.00" departLane="startL_0" departPos="5.10" departSpeed="0.00" departDelay="0.00" arrival="175.00" arrivalLane="goal_0" arrivalPos="497.94" arrivalSpeed="12.88" duration="165.00" routeLength="1837.90" waitingTime="14.00" waitingCount="1" stopTime="0.00" timeLoss="31.80" rerouteNo="2" devices="tripinfo_Lflow.1 routing_Lflow.1" vType="noVar" speedFactor="1.00" vaporized=""/>
    <tripinfo id="Lflow.2" depart="20.00" departLane="startL_0" departPos="5.10" departSpeed="0.00" departDelay="0.00" arrival="177.00" arrivalLane="goal_0" arrivalPos="497.94" arrivalSpeed="12.98" duration="157.00" routeLength="1837.90" waitingTime="6.00" waitingCount="1" stopTime="0.00" timeLoss="24.00" rerouteNo="3" devices="tripinfo_Lflow.2 routing_Lflow.2" vType="noVar" speedFactor="1.00" vaporized=""/>
    <tripinfo id="Lflow.3" depart="30.00" departLane="startL_0" departPos="5.10" departSpeed="0.00" departDelay="0.00" arrival="179.00" arrivalLane="goal_0" arrivalPos="497.94" arrivalSpeed="12.79" duration="149.00" routeLength="1837.90" waitingTime="0.00" waitingCount="0" stopTime="0.00" timeLoss="16.00" rerouteNo="2" devices="tripinfo_Lflow.3 routing_Lflow.3" vType="noVar" speedFactor="1.00" vaporized=""/>
    <tripinfo id="Lflow.4" depart="40.00" departLane="startL_0" departPos="5.10" departSpeed="0.00" departDelay="0.00" arrival="184.00" arrivalLane="goal_0" arrivalPos="497.94" arrivalSpeed="12.97" duration="144.00" routeLength="1837.90" waitingTime="0.00" waitingCount="0" stopTime="0.00" timeLoss="10.80" rerouteNo="3" devices="tripinfo_Lflow.4 routing_Lflow.4" vType="noVar" speedFactor="1.00" vaporized=""/>
    <tripinfo id="Sflow.0" depart="0.00" departLane="start_0" departPos="5.10" departSpeed="0.00" departDelay="0.00" arrival="218.00" arrivalLane="goal_0" arrivalPos="497.94" arrivalSpeed="13.21" duration="218.00" routeLength="2774.14" waitingTime="0.00" waitingCount="0" stopTime="0.00" timeLoss="16.29" rerouteNo="4" devices="tripinfo_Sflow.0 routing_Sflow.0" vType="noVar" speedFactor="1.00" vaporized=""/>