<?xml version="1.0" encoding="UTF-8"?>

<!-- generated on 2021-11-13 11:07:17 by Eclipse SUMO sumo Version 1.9.2
<configuration xmlns:xsi="http://www.w3.org/2001/XMLSchema-instance" xsi:noNamespaceSchemaLocation="http://sumo.dlr.de/xsd/sumoConfiguration.xsd">

    <input>
        <net-file value="shortlong.net.xml"/>
        <route-files value="shortlong.rou.xml"/>
        <additional-files value="additional.xml"/>
    </input>

    <output>
        <tripinfo-output value="tripinfo.xml"/>
    </output>

    <time>
        <begin value="0"/>
        <end value="10000"/>
        <step-length value="1"/>
    </time>

    <processing>
        <time-to-teleport value="1000"/>
    </processing>

    <report>
        <xml-validation value="never"/>
        <xml-validation.routes value="never"/>
        <no-step-log value="true"/>
    </report>

    <traci_server>
        <remote-port value="49533"/>-->

<tripinfos xmlns:xsi="http://www.w3.org/2001/XMLSchema-instance" xsi:noNamespaceSchemaLocation="http://sumo.dlr.de/xsd/tripinfo_file.xsd">
    <tripinfo id="Rflow.0" depart="0.00" departLane="startR_0" departPos="5.10" departSpeed="0.00" departDelay="0.00" arrival="148.00" arrivalLane="goal_0" arrivalPos="497.94" arrivalSpeed="13.74" duration="148.00" routeLength="1899.30" waitingTime="0.00" waitingCount="0" stopTime="0.00" timeLoss="10.51" rerouteNo="2" devices="tripinfo_Rflow.0 routing_Rflow.0" vType="noVar" speedFactor="1.00" vaporized=""/>
    <tripinfo id="Rflow.1" depart="10.00" departLane="startR_0" departPos="5.10" departSpeed="0.00" departDelay="0.00" arrival="158.00" arrivalLane="goal_0" arrivalPos="497.94" arrivalSpeed="12.78" duration="148.00" routeLength="1899.30" waitingTime="0.00" waitingCount="0" stopTime="0.00" timeLoss="11.07" rerouteNo="3" devices="tripinfo_Rflow.1 routing_Rflow.1" vType="noVar" speedFactor="1.00" vaporized=""/>
    <tripinfo id="Lflow.0" depart="0.00" departLane="startL_0" departPos="5.10" departSpeed="0.00" departDelay="0.00" arrival="172.00" arrivalLane="goal_0" arrivalPos="497.94" arrivalSpeed="12.69" duration="172.00" routeLength="1837.90" waitingTime="25.00" waitingCount="1" stopTime="0.00" timeLoss="39.19" rerouteNo="3" devices="tripinfo_Lflow.0 routing_Lflow.0" vType="noVar" speedFactor="1.00" vaporized=""/>
</tripinfos>
00" timeLoss="38.28" rerouteNo="2" devices="tripinfo_Lflow.0 routing_Lflow.0" vType="noVar" speedFactor="1.00" vaporized=""/>
    <tripinfo id="Rflow.0" depart="0.00" departLane="startR_0" departPos="5.10" departSpeed="0.00" departDelay="0.00" arrival="148.00" arrivalLane="goal_0" arrivalPos="497.94" arrivalSpeed="12.80" duration="148.00" routeLength="1899.30" waitingTime="0.00" waitingCount="0" stopTime="0.00" timeLoss="10.62" rerouteNo="1" devices="tripinfo_Rflow.0 routing_Rflow.0" vType="noVar" speedFactor="1.00" vaporized=""/>
    <tripinfo id="Rflow.1" depart="10.00" departLane="startR_0" departPos="5.10" departSpeed="0.00" departDelay="0.00" arrival="159.00" arrivalLane="goal_0" arrivalPos="497.94" arrivalSpeed="13.04" duration="149.00" routeLength="1899.30" waitingTime="0.00" waitingCount="0" stopTime="0.00" timeLoss="11.01" rerouteNo="3" devices="tripinfo_Rflow.1 routing_Rflow.1" vType="noVar" speedFactor="1.00" vaporized=""/>
    <tripinfo id="Rflow.0" depart="0.00" departLane="startR_0" departPos="5.10" departSpeed="0.00" departDelay="0.00" arrival="149.00" arrivalLane="goal_0" arrivalPos="497.94" arrivalSpeed="13.21" duration="149.00" routeLength="1899.30" waitingTime="0.00" waitingCount="0" stopTime="0.00" timeLoss="12.07" rerouteNo="1" devices="tripinfo_Rflow.0 routing_Rflow.0" vType="noVar" speedFactor="1.00" vaporized=""/>
    <tripinfo id="Rflow.1" depart="10.00" departLane="startR_0" departPos="5.10" departSpeed="0.00" departDelay="0.00" arrival="158.00" arrivalLane="goal_0" arrivalPos="497.94" arrivalSpeed="13.04" duration="148.00" routeLength="1899.30" waitingTime="0.00" waitingCount="0" stopTime="0.00" timeLoss="10.57" rerouteNo="3" devices="tripinfo_Rflow.1 routing_Rflow.1" vType="noVar" speedFactor="1.00" vaporized=""/>
    <tripinfo id="Lflow.0" depart="0.00" departLane="startL_0" departPos="5.10" departSpeed="0.00" departDelay="0.00" arrival="173.00" arrivalLane="goal_0" arrivalPos="497.94" arrivalSpeed="12.76" duration="173.00" routeLength="1837.90" waitingTime="24.00" waitingCount="1" stopTime="0.00" timeLoss="39.20" rerouteNo="3" devices="tripinfo_Lflow.0 routing_Lflow.0" vType="noVar" speedFactor="1.00" vaporized=""/>
    <tripinfo id="Rflow.0" depart="0.00" departLane="startR_0" departPos="5.10" departSpeed="0.00" departDelay="0.00" arrival="149.00" arrivalLane="goal_0" arrivalPos="497.94" arrivalSpeed="12.74" duration="149.00" routeLength="1899.30" waitingTime="0.00" waitingCount="0" stopTime="0.00" timeLoss="11.07" rerouteNo="1" devices="tripinfo_Rflow.0 routing_Rflow.0" vType="noVar" speedFactor="1.00" vaporized=""/>
    <tripinfo id="Rflow.1" depart="10.00" departLane="startR_0" departPos="5.10" departSpeed="0.00" departDelay="0.00" arrival="159.00" arrivalLane="goal_0" arrivalPos="497.94" arrivalSpeed="12.76" duration="149.00" routeLength="1899.30" waitingTime="0.00" waitingCount="0" stopTime="0.00" timeLoss="10.94" rerouteNo="2" devices="tripinfo_Rflow.1 routing_Rflow.1" vType="noVar" speedFactor="1.00" vaporized=""/>
    <tripinfo id="Rflow.0" depart="0.00" departLane="startR_0" departPos="5.10" departSpeed="0.00" departDelay="0.00" arrival="149.00" arrivalLane="goal_0" arrivalPos="497.94" arrivalSpeed="13.85" duration="149.00" routeLength="1899.30" waitingTime="0.00" waitingCount="0" stopTime="0.00" timeLoss="11.31" rerouteNo="2" devices="tripinfo_Rflow.0 routing_Rflow.0" vType="noVar" speedFactor="1.00" vaporized=""/>
    <tripinfo id="Rflow.0" depart="0.00" departLane="startR_0" departPos="5.10" departSpeed="0.00" departDelay="0.00" arrival="149.00" arrivalLane="goal_0" arrivalPos="497.94" arrivalSpeed="12.62" duration="149.00" routeLength="1899.30" waitingTime="0.00" waitingCount="0" stopTime="0.00" timeLoss="11.53" rerouteNo="2" devices="tripinfo_Rflow.0 routing_Rflow.0" vType="noVar" speedFactor="1.00" vaporized=""/>
    <tripinfo id="Rflow.1" depart="10.00" departLane="startR_0" departPos="5.10" departSpeed="0.00" departDelay="0.00" arrival="158.00" arrivalLane="goal_0" arrivalPos="497.94" arrivalSpeed="13.35" duration="148.00" routeLength="1899.30" waitingTime="0.00" waitingCount="0" stopTime="0.00" timeLoss="10.24" rerouteNo="3" devices="tripinfo_Rflow.1 routing_Rflow.1" vType="noVar" speedFactor="1.00" vaporized=""/>
    <tripinfo id="Rflow.2" depart="20.00" departLane="startR_0" departPos="5.10" departSpeed="0.00" departDelay="0.00" arrival="169.00" arrivalLane="goal_0" arrivalPos="497.94" arrivalSpeed="12.61" duration="149.00" routeLength="1899.30" waitingTime="0.00" waitingCount="0" stopTime="0.00" timeLoss="11.43" rerouteNo="2" devices="tripinfo_Rflow.2 routing_Rflow.2" vType="noVar" speedFactor="1.00" vaporized=""/>
    <tripinfo id="Lflow.0" depart="0.00" departLane="startL_0" departPos="5.10" departSpeed="0.00" departDelay="0.00" arrival="173.00" arrivalLane="goal_0" arrivalPos="497.94" arrivalSpeed="13.41" duration="173.00" routeLength="1837.90" waitingTime="25.00" waitingCount="1" stopTime="0.00" timeLoss="40.30" rerouteNo="3" devices="tripinfo_Lflow.0 routing_Lflow.0" vType="noVar" speedFactor="1.00" vaporized=""/>
    <tripinfo id="Lflow.1" depart="10.00" departLane="startL_0" departPos="5.10" departSpeed="0.00" departDelay="0.00" arrival="175.00" arrivalLane="goal_0" arrivalPos="497.94" arrivalSpeed="13.52" duration="165.00" routeLength="1837.90" waitingTime="14.00" waitingCount="1" stopTime="0.00" timeLoss="31.94" rerouteNo="2" devices="tripinfo_Lflow.1 routing_Lflow.1" vType="noVar" speedFactor="1.00" vaporized=""/>
    <tripinfo id="Lflow.2" depart="20.00" departLane="startL_0" departPos="5.10" departSpeed="0.00" departDelay="0.00" arrival="178.00" arrivalLane="goal_0" arrivalPos="497.94" arrivalSpeed="12.66" duration="158.00" routeLength="1837.90" waitingTime="6.00" waitingCount="1" stopTime="0.00" timeLoss="24.39" rerouteNo="2" devices="tripinfo_Lflow.2 routing_Lflow.2" vType="noVar" speedFactor="1.00" vaporized=""/>
    <tripinfo id="Rflow.0" depart="0.00" departLane="startR_0" departPos="5.10" departSpeed="0.00" departDelay="0.00" arrival="149.00" arrivalLane="goal_0" arrivalPos="497.94" arrivalSpeed="13.42" duration="149.00" routeLength="1899.30" waitingTime="0.00" waitingCount="0" stopTime="0.00" timeLoss="11.89" rerouteNo="2" devices="tripinfo_Rflow.0 routing_Rflow.0" vType="noVar" speedFactor="1.00" vaporized=""/>
    <tripinfo id="Rflow.1" depart="10.00" departLane="startR_0" departPos="5.10" departSpeed="0.00" departDelay="0.00" arrival="158.00" arrivalLane="goal_0" arrivalPos="497.94" arrivalSpeed="12.73" duration="148.00" routeLength="1899.30" waitingTime="0.00" waitingCount="0" stopTime="0.00" timeLoss="10.64" rerouteNo="3" devices="tripinfo_Rflow.1 routing_Rflow.1" vType="noVar" speedFactor="1.00" vaporized=""/>
    <tripinfo id="Rflow.2" depart="20.00" departLane="startR_0" departPos="5.10" departSpeed="0.00" departDelay="0.00" arrival="169.00" arrivalLane="goal_0" arrivalPos="497.94" arrivalSpeed="12.74" duration="149.00" routeLength="1899.30" waitingTime="0.00" waitingCount="0" stopTime="0.00" timeLoss="11.15" rerouteNo="2" devices="tripinfo_Rflow.2 routing_Rflow.2" vType="noVar" speedFactor="1.00" vaporized=""/>
    <tripinfo id="Lflow.0" depart="0.00" departLane="startL_0" departPos="5.10" departSpeed="0.00" departDelay="0.00" arrival="173.00" arrivalLane="goal_0" arrivalPos="497.94" arrivalSpeed="13.80" duration="173.00" routeLength="1837.90" waitingTime="25.00" waitingCount="1" stopTime="0.00" timeLoss="39.05" rerouteNo="3" devices="tripinfo_Lflow.0 routing_Lflow.0" vType="noVar" speedFactor="1.00" vaporized=""/>
    <tripinfo id="Lflow.1" depart="10.00" departLane="startL_0" departPos="5.10" departSpeed="0.00" departDelay="0.00" arrival="175.00" arrivalLane="goal_0" arrivalPos="497.94" arrivalSpeed="12.87" duration="165.00" routeLength="1837.90" waitingTime="14.00" waitingCount="1" stopTime="0.00" timeLoss="31.55" rerouteNo="2" devices="tripinfo_Lflow.1 routing_Lflow.1" vType="noVar" speedFactor="1.00" vaporized=""/>
    <tripinfo id="Rflow.0" depart="0.00" departLane="startR_0" departPos="5.10" departSpeed="0.00" departDelay="0.00" arrival="149.00" arrivalLane="goal_0" arrivalPos="497.94" arrivalSpeed="13.53" duration="149.00" routeLength="1899.30" waitingTime="0.00" waitingCount="0" stopTime="0.00" timeLoss="11.42" rerouteNo="2" devices="tripinfo_Rflow.0 routing_Rflow.0" vType="noVar" speedFactor="1.00" vaporized=""/>
    <tripinfo id="Rflow.1" depart="10.00" departLane="startR_0" departPos="5.10" departSpeed="0.00" departDelay="0.00" arrival="158.00" arrivalLane="goal_0" arrivalPos="497.94" arrivalSpeed="12.89" duration="148.00" routeLength="1899.30" waitingTime="0.00" waitingCount="0" stopTime="0.00" timeLoss="10.41" rerouteNo="3" devices="tripinfo_Rflow.1 routing_Rflow.1" vType="noVar" speedFactor="1.00" vaporized=""/>
    <tripinfo id="Rflow.2" depart="20.00" departLane="startR_0" departPos="5.10" departSpeed="0.00" departDelay="0.00" arrival="168.00" arrivalLane="goal_0" arrivalPos="497.94" arrivalSpeed="13.41" duration="148.00" routeLength="1899.30" waitingTime="0.00" waitingCount="0" stopTime="0.00" timeLoss="10.73" rerouteNo="2" devices="tripinfo_Rflow.2 routing_Rflow.2" vType="noVar" speedFactor="1.00" vaporized=""/>
    <tripinfo id="Lflow.0" depart="0.00" departLane="startL_0" departPos="5.10" departSpeed="0.00" departDelay="0.00" arrival="172.00" arrivalLane="goal_0" arrivalPos="497.94" arrivalSpeed="12.79" duration="172.00" routeLength="1837.90" waitingTime="25.00" waitingCount="1" stopTime="0.00" timeLoss="38.99" rerouteNo="3" devices="tripinfo_Lflow.0 routing_Lflow.0" vType="noVar" speedFactor="1.00" vaporized=""/>
    <tripinfo id="Lflow.1" depart="10.00" departLane="startL_0" departPos="5.10" departSpeed="0.00" departDelay="0.00" arrival="175.00" arrivalLane="goal_0" arrivalPos="497.94" arrivalSpeed="12.84" duration="165.00" routeLength="1837.90" waitingTime="14.00" waitingCount="1" stopTime="0.00" timeLoss="31.94" rerouteNo="2" devices="tripinfo_Lflow.1 routing_Lflow.1" vType="noVar" speedFactor="1.00" vaporized=""/>
    <tripinfo id="Lflow.2" depart="20.00" departLane="startL_0" departPos="5.10" departSpeed="0.00" departDelay="0.00" arrival="177.00" arrivalLane="goal_0" arrivalPos="497.94" arrivalSpeed="12.92" duration="157.00" routeLength="1837.90" waitingTime="7.00" waitingCount="1" stopTime="0.00" timeLoss="23.93" rerouteNo="3" devices="tripinfo_Lflow.2 routing_Lflow.2" vType="noVar" speedFactor="1.00" vaporized=""/>
    <tripinfo id="Rflow.0" depart="0.00" departLane="startR_0" departPos="5.10" departSpeed="0.00" departDelay="0.00" arrival="149.00" arrivalLane="goal_0" arrivalPos="497.94" arrivalSpeed="12.96" duration="149.00" routeLength="1899.30" waitingTime="0.00" waitingCount="0" stopTime="0.00" timeLoss="11.25" rerouteNo="2" devices="tripinfo_Rflow.0 routing_Rflow.0" vType="noVar" speedFactor="1.00" vaporized=""/>
    <tripinfo id="Rflow.1" depart="10.00" departLane="startR_0" departPos="5.10" departSpeed="0.00" departDelay="0.00" arrival="158.00" arrivalLane="goal_0" arrivalPos="497.94" arrivalSpeed="13.59" duration="148.00" routeLength="1899.30" waitingTime="0.00" waitingCount="0" stopTime="0.00" timeLoss="10.56" rerouteNo="3" devices="tripinfo_Rflow.1 routing_Rflow.1" vType="noVar" speedFactor="1.00" vaporized=""/>
    <tripinfo id="Rflow.2" depart="20.00" departLane="startR_0" departPos="5.10" departSpeed="0.00" departDelay="0.00" arrival="168.00" arrivalLane="goal_0" arrivalPos="497.94" arrivalSpeed="13.85" duration="148.00" routeLength="1899.30" waitingTime="0.00" waitingCount="0" stopTime="0.00" timeLoss="10.39" rerouteNo="2" devices="tripinfo_Rflow.2 routing_Rflow.2" vType="noVar" speedFactor="1.00" vaporized=""/>
    <tripinfo id="Lflow.0" depart="0.00" departLane="startL_0" departPos="5.10" departSpeed="0.00" departDelay="0.00" arrival="172.00" arrivalLane="goal_0" arrivalPos="497.94" arrivalSpeed="12.99" duration="172.00" routeLength="1837.90" waitingTime="25.00" waitingCount="1" stopTime="0.00" timeLoss="39.29" rerouteNo="3" devices="tripinfo_Lflow.0 routing_Lflow.0" vType="noVar" speedFactor="1.00" vaporized=""/>
    <tripinfo id="Lflow.1" depart="10.00" departLane="startL_0" departPos="5.10" departSpeed="0.00" departDelay="0.00" arrival="175.00" arrivalLane="goal_0" arrivalPos="497.94" arrivalSpeed="13.81" duration="165.00" routeLength="1837.90" waitingTime="14.00" waitingCount="1" stopTime="0.00" timeLoss="31.40" rerouteNo="2" devices="tripinfo_Lflow.1 routing_Lflow.1" vType="noVar" speedFactor="1.00" vaporized=""/>
    <tripinfo id="Rflow.0" depart="0.00" departLane="startR_0" departPos="5.10" departSpeed="0.00" departDelay="0.00" arrival="149.00" arrivalLane="goal_0" arrivalPos="497.94" arrivalSpeed="13.85" duration="149.00" routeLength="1899.30" waitingTime="0.00" waitingCount="0" stopTime="0.00" timeLoss="10.89" rerouteNo="2" devices="tripinfo_Rflow.0 routing_Rflow.0" vType="noVar" speedFactor="1.00" vaporized=""/>
    <tripinfo id="Rflow.1" depart="10.00" departLane="startR_0" departPos="5.10" departSpeed="0.00" departDelay="0.00" arrival="158.00" arrivalLane="goal_0" arrivalPos="497.94" arrivalSpeed="13.67" duration="148.00" routeLength="1899.30" waitingTime="0.00" waitingCount="0" stopTime="0.00" timeLoss="10.70" rerouteNo="3" devices="tripinfo_Rflow.1 routing_Rflow.1" vType="noVar" speedFactor="1.00" vaporized=""/>
    <tripinfo id="Lflow.0" depart="0.00" departLane="startL_0" departPos="5.10" departSpeed="0.00" departDelay="0.00" arrival="173.00" arrivalLane="goal_0" arrivalPos="497.94" arrivalSpeed="13.20" duration="173.00" routeLength="1837.90" waitingTime="25.00" waitingCount="1" stopTime="0.00" timeLoss="39.62" rerouteNo="3" devices="tripinfo_Lflow.0 routing_Lflow.0" vType="noVar" speedFactor="1.00" vaporized=""/>
    <tripinfo id="Lflow.1" depart="10.00" departLane="startL_0" departPos="5.10" departSpeed="0.00" departDelay="0.00" arrival="175.00" arrivalLane="goal_0" arrivalPos="497.94" arrivalSpeed="13.28" duration="165.00" routeLength="1837.90" waitingTime="14.00" waitingCount="1" stopTime="0.00" timeLoss="31.99" rerouteNo="2" devices="tripinfo_Lflow.1 routing_Lflow.1" vType="noVar" speedFactor="1.00" vaporized=""/>
    <tripinfo id="Lflow.2" depart="20.00" departLane="startL_0" departPos="5.10" departSpeed="0.00" departDelay="0.00" arrival="177.00" arrivalLane="goal_0" arrivalPos="497.94" arrivalSpeed="13.57" duration="157.00" routeLength="1837.90" waitingTime="6.00" waitingCount="1" stopTime="0.00" timeLoss="23.88" rerouteNo="3" devices="tripinfo_Lflow.2 routing_Lflow.2" vType="noVar" speedFactor="1.00" vaporized=""/>
    <tripinfo id="Lflow.3" depart="30.00" departLane="startL_0" departPos="5.10" departSpeed="0.00" departDelay="0.00" arrival="179.00" arrivalLane="goal_0" arrivalPos="497.94" arrivalSpeed="13.28" duration="149.00" routeLength="1837.90" waitingTime="0.00" waitingCount="0" stopTime="0.00" timeLoss="15.96" rerouteNo="1" devices="tripinfo_Lflow.3 routing_Lflow.3" vType="noVar" speedFactor="1.00" vaporized=""/>
    <tripinfo id="Lflow.4" depart="40.00" departLane="startL_0" departPos="5.10" departSpeed="0.00" departDelay="0.00" arrival="185.00" arrivalLane="goal_0" arrivalPos="497.94" arrivalSpeed="13.57" duration="145.00" routeLength="1837.90" waitingTime="0.00" waitingCount="0" stopTime="0.00" timeLoss="11.45" rerouteNo="2" devices="tripinfo_Lflow.4 routing_Lflow.4" vType="noVar" speedFactor="1.00" vaporized=""/>
    <tripinfo id="Rflow.2" depart="20.00" departLane="startR_0" departPos="5.10" departSpeed="0.00" departDelay="0.00" arrival="188.00" arrivalLane="goal_0" arrivalPos="497.94" arrivalSpeed="13.32" duration="168.00" routeLength="2081.93" waitingTime="0.00" waitingCount="0" stopTime="0.00" timeLoss="16.05" rerouteNo="3" devices="tripinfo_Rflow.2 routing_Rflow.2" vType="noVar" speedFactor="1.00" vaporized=""/>
    <tripinfo id="Sflow.0" depart="0.00" departLane="start_0" departPos="5.10" departSpeed="0.00" departDelay="0.00" arrival="217.00" arrivalLane="goal_0" arrivalPos="497.94" arrivalSpeed="12.87" duration="217.00" routeLength="2774.14" waitingTime="0.00" waitingCount="0" stopTime="0.00" timeLoss="16.03" rerouteNo="3" devices="tripinfo_Sflow.0 routing_Sflow.0" vType="noVar" speedFactor="1.00" vaporized=""/>
    <tripinfo id="Sflow.1" depart="3.00" departLane="start_0" departPos="5.10" departSpeed="0.00" departDelay="0.50" arrival="220.00" arrivalLane="goal_0" arrivalPos="497.94" arrivalSpeed="13.11" duration="217.00" routeLength="2774.14" waitingTime="0.00" waitingCount="0" stopTime="0.00" timeLoss="15.73" rerouteNo="4" devices="tripinfo_Sflow.1 routing_Sflow.1" vType="noVar" speedFactor="1.00" vaporized=""/>
    <tripinfo id="Rflow.3" depart="30.00" departLane="startR_0" departPos="5.10" departSpeed="0.00" departDelay="0.00" arrival="223.00" arrivalLane="goal_0" arrivalPos="497.94" arrivalSpeed="13.61" duration="193.00" routeLength="1899.30" waitingTime="41.00" waitingCount="1" stopTime="0.00" timeLoss="55.37" rerouteNo="2" devices="tripinfo_Rflow.3 routing_Rflow.3" vType="noVar" speedFactor="1.00" vaporized=""/>
    <tripinfo id="Rflow.0" depart="0.00" departLane="startR_0" departPos="5.10" departSpeed="0.00" departDelay="0.00" arrival="149.00" arrivalLane="goal_0" arrivalPos="497.94" arrivalSpeed="13.73" duration="149.00" routeLength="1899.30" waitingTime="0.00" waitingCount="0" stopTime="0.00" timeLoss="11.24" rerouteNo="2" devices="tripinfo_Rflow.0 routing_Rflow.0" vType="noVar" speedFactor="1.00" vaporized=""/>
    <tripinfo id="Rflow.1" depart="10.00" departLane="startR_0" departPos="5.10" departSpeed="0.00" departDelay="0.00" arrival="158.00" arrivalLane="goal_0" arrivalPos="497.94" arrivalSpeed="13.64" duration="148.00" routeLength="1899.30" waitingTime="0.00" waitingCount="0" stopTime="0.00" timeLoss="10.32" rerouteNo="3" devices="tripinfo_Rflow.1 routing_Rflow.1" vType="noVar" speedFactor="1.00" vaporized=""/>
    <tripinfo id="Lflow.0" depart="0.00" departLane="startL_0" departPos="5.10" departSpeed="0.00" departDelay="0.00" arrival="172.00" arrivalLane="goal_0" arrivalPos="497.94" arrivalSpeed="13.73" duration="172.00" routeLength="1837.90" waitingTime="25.00" waitingCount="1" stopTime="0.00" timeLoss="38.77" rerouteNo="3" devices="tripinfo_Lflow.0 routing_Lflow.0" vType="noVar" speedFactor="1.00" vaporized=""/>
    <tripinfo id="Lflow.1" depart="10.00" departLane="startL_0" departPos="5.10" departSpeed="0.00" departDelay="0.00" arrival="175.00" arrivalLane="goal_0" arrivalPos="497.94" arrivalSpeed="12.91" duration="165.00" routeLength="1837.90" waitingTime="14.00" waitingCount="1" stopTime="0.00" timeLoss="31.98" rerouteNo="2" devices="tripinfo_Lflow.1 routing_Lflow.1" vType="noVar" speedFactor="1.00" vaporized=""/>
    <tripinfo id="Lflow.2" depart="20.00" departLane="startL_0" departPos="5.10" departSpeed="0.00" departDelay="0.00" arrival="177.00" arrivalLane="goal_0" arrivalPos="497.94" arrivalSpeed="13.10" duration="157.00" routeLength="1837.90" waitingTime="6.00" waitingCount="1" stopTime="0.00" timeLoss="24.06" rerouteNo="3" devices="tripinfo_Lflow.2 routing_Lflow.2" vType="noVar" speedFactor="1.00" vaporized=""/>
    <tripinfo id="Lflow.3" depart="30.00" departLane="startL_0" departPos="5.10" departSpeed="0.00" departDelay="0.00" arrival="180.00" arrivalLane="goal_0" arrivalPos="497.94" arrivalSpeed="12.78" duration="150.00" routeLength="1837.90" waitingTime="0.00" waitingCount="0" stopTime="0.00" timeLoss="16.41" rerouteNo="1" devices="tripinfo_Lflow.3 routing_Lflow.3" vType="noVar" speedFactor="1.00" vaporized=""/>
    <tripinfo id="Lflow.4" depart="40.00" departLane="startL_0" departPos="5.10" departSpeed="0.00" departDelay="0.00" arrival="184.00" arrivalLane="goal_0" arrivalPos="497.94" arrivalSpeed="13.82" duration="144.00" routeLength="1837.90" waitingTime="0.00" waitingCount="0" stopTime="0.00" timeLoss="10.76" rerouteNo="3" devices="tripinfo_Lflow.4 routing_Lflow.4" vType="noVar" speedFactor="1.00" vaporized=""/>
    <tripinfo id="Rflow.2" depart="20.00" departLane="startR_0" departPos="5.10" departSpeed="0.00" departDelay="0.00" arrival="189.00" arrivalLane="goal_0" arrivalPos="497.94" arrivalSpeed="13.39" duration="169.00" routeLength="2081.93" waitingTime="0.00" waitingCount="0" stopTime="0.00" timeLoss="16.20" rerouteNo="3" devices="tripinfo_Rflow.2 routing_Rflow.2" vType="noVar" speedFactor="1.00" vaporized=""/>
    <tripinfo id="Sflow.0" depart="0.00" departLane="start_0" departPos="5.10" departSpeed="0.00" departDelay="0.00" arrival="217.00" arrivalLane="goal_0" arrivalPos="497.94" arrivalSpeed="12.77" duration="217.00" routeLength="2774.14" waitingTime="0.00" waitingCount="0" stopTime="0.00" timeLoss="16.08" rerouteNo="4" devices="tripinfo_Sflow.0 routing_Sflow.0" vType="noVar" speedFactor="1.00" vaporized=""/>
    <tripinfo id="Sflow.1" depart="3.00" departLane="start_0" departPos="5.10" departSpeed="0.00" departDelay="0.50" arrival="220.00" arrivalLane="goal_0" arrivalPos="497.94" arrivalSpeed="12.60" duration="217.00" routeLength="2774.14" waitingTime="0.00" waitingCount="0" stopTime="0.00" timeLoss="16.05" rerouteNo="3" devices="tripinfo_Sflow.1 routing_Sflow.1" vType="noVar" speedFactor="1.00" vaporized=""/>
    <tripinfo id="Rflow.0" depart="0.00" departLane="startR_0" departPos="5.10" departSpeed="0.00" departDelay="0.00" arrival="149.00" arrivalLane="goal_0" arrivalPos="497.94" arrivalSpeed="13.36" duration="149.00" routeLength="1899.30" waitingTime="0.00" waitingCount="0" stopTime="0.00" timeLoss="10.99" rerouteNo="2" devices="tripinfo_Rflow.0 routing_Rflow.0" vType="noVar" speedFactor="1.00" vaporized=""/>
    <tripinfo id="Rflow.1" depart="10.00" departLane="startR_0" departPos="5.10" departSpeed="0.00" departDelay="0.00" arrival="159.00" arrivalLane="goal_0" arrivalPos="497.94" arrivalSpeed="12.73" duration="149.00" routeLength="1899.30" waitingTime="0.00" waitingCount="0" stopTime="0.00" timeLoss="11.20" rerouteNo="3" devices="tripinfo_Rflow.1 routing_Rflow.1" vType="noVar" speedFactor="1.00" vaporized=""/>
    <tripinfo id="Lflow.0" depart="0.00" departLane="startL_0" departPos="5.10" departSpeed="0.00" departDelay="0.00" arrival="172.00" arrivalLane="goal_0" arrivalPos="497.94" arrivalSpeed="13.33" duration="172.00" routeLength="1837.90" waitingTime="25.00" waitingCount="1" stopTime="0.00" timeLoss="39.02" rerouteNo="3" devices="tripinfo_Lflow.0 routing_Lflow.0" vType="noVar" speedFactor="1.00" vaporized=""/>
    <tripinfo id="Lflow.1" depart="10.00" departLane="startL_0" departPos="5.10" departSpeed="0.00" departDelay="0.00" arrival="175.00" arrivalLane="goal_0" arrivalPos="497.94" arrivalSpeed="12.75" duration="165.00" routeLength="1837.90" waitingTime="14.00" waitingCount="1" stopTime="0.00" timeLoss="31.81" rerouteNo="2" devices="tripinfo_Lflow.1 routing_Lflow.1" vType="noVar" speedFactor="1.00" vaporized=""/>
    <tripinfo id="Lflow.2" depart="20.00" departLane="startL_0" departPos="5.10" departSpeed="0.00" departDelay="0.00" arrival="178.00" arrivalLane="goal_0" arrivalPos="497.94" arrivalSpeed="13.47" duration="158.00" routeLength="1837.90" waitingTime="6.00" waitingCount="1" stopTime="0.00" timeLoss="24.28" rerouteNo="3" devices="tripinfo_Lflow.2 routing_Lflow.2" vType="noVar" speedFactor="1.00" vaporized=""/>
    <tripinfo id="Lflow.3" depart="30.00" departLane="startL_0" departPos="5.10" departSpeed="0.00" departDelay="0.00" arrival="179.00" arrivalLane="goal_1" arrivalPos="497.94" arrivalSpeed="12.83" duration="149.00" routeLength="1837.90" waitingTime="0.00" waitingCount="0" stopTime="0.00" timeLoss="16.05" rerouteNo="2" devices="tripinfo_Lflow.3 routing_Lflow.3" vType="noVar" speedFactor="1.00" vaporized=""/>
    <tripinfo id="Rflow.0" depart="0.00" departLane="startR_0" departPos="5.10" departSpeed="0.00" departDelay="0.00" arrival="149.00" arrivalLane="goal_0" arrivalPos="497.94" arrivalSpeed="13.25" duration="149.00" routeLength="1899.30" waitingTime="0.00" waitingCount="0" stopTime="0.00" timeLoss="10.92" rerouteNo="2" devices="tripinfo_Rflow.0 routing_Rflow.0" vType="noVar" speedFactor="1.00" vaporized=""/>
    <tripinfo id="Rflow.1" depart="10.00" departLane="startR_0" departPos="5.10" departSpeed="0.00" departDelay="0.00" arrival="159.00" arrivalLane="goal_0" arrivalPos="497.94" arrivalSpeed="13.70" duration="149.00" routeLength="1899.30" waitingTime="0.00" waitingCount="0" stopTime="0.00" timeLoss="11.15" rerouteNo="3" devices="tripinfo_Rflow.1 routing_Rflow.1" vType="noVar" speedFactor="1.00" vaporized=""/>
    <tripinfo id="Lflow.0" depart="0.00" departLane="startL_0" departPos="5.10" departSpeed="0.00" departDelay="0.00" arrival="172.00" arrivalLane="goal_0" arrivalPos="497.94" arrivalSpeed="13.63" duration="172.00" routeLength="1837.90" waitingTime="25.00" waitingCount="1" stopTime="0.00" timeLoss="38.90" rerouteNo="3" devices="tripinfo_Lflow.0 routing_Lflow.0" vType="noVar" speedFactor="1.00" vaporized=""/>
    <tripinfo id="Lflow.1" depart="10.00" departLane="startL_0" departPos="5.10" departSpeed="0.00" departDelay="0.00" arrival="174.00" arrivalLane="goal_0" arrivalPos="497.94" arrivalSpeed="13.20" duration="164.00" routeLength="1837.90" waitingTime="14.00" waitingCount="1" stopTime="0.00" timeLoss="30.70" rerouteNo="2" devices="tripinfo_Lflow.1 routing_Lflow.1" vType="noVar" speedFactor="1.00" vaporized=""/>
    <tripinfo id="Lflow.2" depart="20.00" departLane="startL_0" departPos="5.10" departSpeed="0.00" departDelay="0.00" arrival="176.00" arrivalLane="goal_0" arrivalPos="497.94" arrivalSpeed="12.63" duration="156.00" routeLength="1837.90" waitingTime="6.00" waitingCount="1" stopTime="0.00" timeLoss="23.08" rerouteNo="3" devices="tripinfo_Lflow.2 routing_Lflow.2" vType="noVar" speedFactor="1.00" vaporized=""/>
    <tripinfo id="Rflow.0" depart="0.00" departLane="startR_0" departPos="5.10" departSpeed="0.00" departDelay="0.00" arrival="149.00" arrivalLane="goal_0" arrivalPos="497.94" arrivalSpeed="13.01" duration="149.00" routeLength="1899.30" waitingTime="0.00" waitingCount="0" stopTime="0.00" timeLoss="11.87" rerouteNo="2" devices="tripinfo_Rflow.0 routing_Rflow.0" vType="noVar" speedFactor="1.00" vaporized=""/>
    <tripinfo id="Rflow.1" depart="10.00" departLane="startR_0" departPos="5.10" departSpeed="0.00" departDelay="0.00" arrival="159.00" arrivalLane="goal_0" arrivalPos="497.94" arrivalSpeed="12.84" duration="149.00" routeLength="1899.30" waitingTime="0.00" waitingCount="0" stopTime="0.00" timeLoss="10.88" rerouteNo="3" devices="tripinfo_Rflow.1 routing_Rflow.1" vType="noVar" speedFactor="1.00" vaporized=""/>
    <tripinfo id="Lflow.0" depart="0.00" departLane="startL_0" departPos="5.10" departSpeed="0.00" departDelay="0.00" arrival="172.00" arrivalLane="goal_0" arrivalPos="497.94" arrivalSpeed="13.16" duration="172.00" routeLength="1837.90" waitingTime="25.00" waitingCount="1" stopTime="0.00" timeLoss="38.88" rerouteNo="3" devices="tripinfo_Lflow.0 routing_Lflow.0" vType="noVar" speedFactor="1.00" vaporized=""/>
    <tripinfo id="Lflow.1" depart="10.00" departLane="startL_0" departPos="5.10" departSpeed="0.00" departDelay="0.00" arrival="175.00" arrivalLane="goal_0" arrivalPos="497.94" arrivalSpeed="12.63" duration="165.00" routeLength="1837.90" waitingTime="14.00" waitingCount="1" stopTime="0.00" timeLoss="31.28" rerouteNo="2" devices="tripinfo_Lflow.1 routing_Lflow.1" vType="noVar" speedFactor="1.00" vaporized=""/>