<?xml version="1.0" encoding="UTF-8"?>

<!-- generated on 2021-10-27 00:58:32 by Eclipse SUMO GUI Version 1.9.2
<configuration xmlns:xsi="http://www.w3.org/2001/XMLSchema-instance" xsi:noNamespaceSchemaLocation="http://sumo.dlr.de/xsd/sumoConfiguration.xsd">

    <input>
        <net-file value="shortlong.net.xml"/>
        <route-files value="shortlong.rou.xml"/>
        <additional-files value="additional.xml"/>
    </input>

    <output>
        <tripinfo-output value="tripinfo.xml"/>
    </output>

    <time>
        <begin value="0"/>
        <end value="10000"/>
    </time>

    <processing>
        <time-to-teleport value="-1"/>
    </processing>

    <traci_server>
        <remote-port value="50741"/>
    </traci_server>

</configuration>
-->

<tripinfos xmlns:xsi="http://www.w3.org/2001/XMLSchema-instance" xsi:noNamespaceSchemaLocation="http://sumo.dlr.de/xsd/tripinfo_file.xsd">
    <tripinfo id="Lflow.0" depart="0.00" departLane="startL_0" departPos="5.10" departSpeed="0.00" departDelay="0.00" arrival="159.00" arrivalLane="goal_0" arrivalPos="497.94" arrivalSpeed="14.65" duration="159.00" routeLength="2013.96" waitingTime="1.00" waitingCount="1" stopTime="0.00" timeLoss="21.31" rerouteNo="2" devices="tripinfo_Lflow.0 routing_Lflow.0" vType="DEFAULT_VEHTYPE" speedFactor="1.06" vaporized=""/>
    <tripinfo id="Lflow.1" depart="10.00" departLane="startL_0" departPos="5.10" departSpeed="0.00" departDelay="0.00" arrival="163.00" arrivalLane="goal_1" arrivalPos="497.94" arrivalSpeed="13.07" duration="153.00" routeLength="1837.90" waitingTime="1.00" waitingCount="1" stopTime="0.00" timeLoss="21.26" rerouteNo="2" devices="tripinfo_Lflow.1 routing_Lflow.1" vType="DEFAULT_VEHTYPE" speedFactor="1.01" vaporized=""/>
    <tripinfo id="Rflow.0" depart="0.00" departLane="startR_0" departPos="5.10" departSpeed="0.00" departDelay="0.00" arrival="164.00" arrivalLane="goal_0" arrivalPos="497.94" arrivalSpeed="11.96" duration="164.00" routeLength="1899.30" waitingTime="1.00" waitingCount="1" stopTime="0.00" timeLoss="17.41" rerouteNo="3" devices="tripinfo_Rflow.0 routing_Rflow.0" vType="DEFAULT_VEHTYPE" speedFactor="0.94" vaporized=""/>
    <tripinfo id="Rflow.1" depart="10.00" departLane="startR_0" departPos="5.10" departSpeed="0.00" departDelay="0.00" arrival="172.00" arrivalLane="goal_0" arrivalPos="497.94" arrivalSpeed="14.97" duration="162.00" routeLength="2081.93" waitingTime="1.00" waitingCount="1" stopTime="0.00" timeLoss="21.94" rerouteNo="2" devices="tripinfo_Rflow.1 routing_Rflow.1" vType="DEFAULT_VEHTYPE" speedFactor="1.08" vaporized=""/>
    <tripinfo id="Lflow.3" depart="30.00" departLane="startL_0" departPos="5.10" departSpeed="0.00" departDelay="0.00" arrival="176.00" arrivalLane="goal_0" arrivalPos="497.94" arrivalSpeed="13.30" duration="146.00" routeLength="1837.90" waitingTime="1.00" waitingCount="1" stopTime="0.00" timeLoss="18.72" rerouteNo="3" devices="tripinfo_Lflow.3 routing_Lflow.3" vType="DEFAULT_VEHTYPE" speedFactor="1.05" vaporized=""/>
    <tripinfo id="Lflow.2" depart="20.00" departLane="startL_0" departPos="5.10" departSpeed="0.00" departDelay="0.00" arrival="184.00" arrivalLane="goal_0" arrivalPos="497.94" arrivalSpeed="14.20" duration="164.00" routeLength="2013.96" waitingTime="1.00" waitingCount="1" stopTime="0.00" timeLoss="21.18" rerouteNo="3" devices="tripinfo_Lflow.2 routing_Lflow.2" vType="DEFAULT_VEHTYPE" speedFactor="1.03" vaporized=""/>
    <tripinfo id="Lflow.4" depart="40.00" departLane="startL_0" departPos="5.10" departSpeed="0.00" departDelay="0.00" arrival="200.00" arrivalLane="goal_0" arrivalPos="497.94" arrivalSpeed="12.87" duration="160.00" routeLength="1837.90" waitingTime="1.00" waitingCount="1" stopTime="0.00" timeLoss="18.16" rerouteNo="2" devices="tripinfo_Lflow.4 routing_Lflow.4" vType="DEFAULT_VEHTYPE" speedFactor="0.94" vaporized=""/>
    <tripinfo id="Rflow.2" depart="20.00" departLane="startR_0" departPos="5.10" departSpeed="0.00" departDelay="0.00" arrival="203.00" arrivalLane="goal_0" arrivalPos="497.94" arrivalSpeed="11.10" duration="183.00" routeLength="1899.30" waitingTime="1.00" waitingCount="1" stopTime="0.00" timeLoss="17.07" rerouteNo="2" devices="tripinfo_Rflow.2 routing_Rflow.2" vType="DEFAULT_VEHTYPE" speedFactor="0.83" vaporized=""/>
    <tripinfo id="Lflow.5" depart="50.00" departLane="startL_0" departPos="5.10" departSpeed="0.00" departDelay="0.00" arrival="203.00" arrivalLane="goal_1" arrivalPos="497.94" arrivalSpeed="14.55" duration="153.00" routeLength="2013.96" waitingTime="1.00" waitingCount="1" stopTime="0.00" timeLoss="19.08" rerouteNo="2" devices="tripinfo_Lflow.5 routing_Lflow.5" vType="DEFAULT_VEHTYPE" speedFactor="1.09" vaporized=""/>
    <tripinfo id="Rflow.5" depart="50.00" departLane="startR_0" departPos="5.10" departSpeed="0.00" departDelay="0.00" arrival="214.00" arrivalLane="goal_0" arrivalPos="497.94" arrivalSpeed="13.83" duration="164.00" routeLength="1899.30" waitingTime="1.00" waitingCount="1" stopTime="0.00" timeLoss="30.53" rerouteNo="2" devices="tripinfo_Rflow.5 routing_Rflow.5" vType="DEFAULT_VEHTYPE" speedFactor="1.03" vaporized=""/>
    <tripinfo id="Rflow.6" depart="60.00" departLane="startR_0" departPos="5.10" departSpeed="0.00" departDelay="0.00" arrival="218.00" arrivalLane="goal_1" arrivalPos="497.94" arrivalSpeed="15.21" duration="158.00" routeLength="2081.93" waitingTime="1.00" waitingCount="1" stopTime="0.00" timeLoss="22.72" rerouteNo="2" devices="tripinfo_Rflow.6 routing_Rflow.6" vType="DEFAULT_VEHTYPE" speedFactor="1.12" vaporized=""/>
    <tripinfo id="Rflow.4" depart="40.00" departLane="startR_0" departPos="5.10" departSpeed="0.00" departDelay="0.00" arrival="219.00" arrivalLane="goal_0" arrivalPos="497.94" arrivalSpeed="10.76" duration="179.00" routeLength="1899.30" waitingTime="1.00" waitingCount="1" stopTime="0.00" timeLoss="18.38" rerouteNo="2" devices="tripinfo_Rflow.4 routing_Rflow.4" vType="DEFAULT_VEHTYPE" speedFactor="0.86" vaporized=""/>
    <tripinfo id="Lflow.6" depart="60.00" departLane="startL_0" departPos="5.10" departSpeed="0.00" departDelay="0.00" arrival="220.00" arrivalLane="goal_1" arrivalPos="497.94" arrivalSpeed="13.75" duration="160.00" routeLength="2013.96" waitingTime="1.00" waitingCount="1" stopTime="0.00" timeLoss="20.03" rerouteNo="2" devices="tripinfo_Lflow.6 routing_Lflow.6" vType="DEFAULT_VEHTYPE" speedFactor="1.05" vaporized=""/>
    <tripinfo id="Rflow.3" depart="30.00" departLane="startR_0" departPos="5.10" departSpeed="0.00" departDelay="0.00" arrival="225.00" arrivalLane="goal_0" arrivalPos="497.94" arrivalSpeed="12.25" duration="195.00" routeLength="2081.93" waitingTime="1.00" waitingCount="1" stopTime="0.00" timeLoss="23.35" rerouteNo="2" devices="tripinfo_Rflow.3 routing_Rflow.3" vType="DEFAULT_VEHTYPE" speedFactor="0.89" vaporized=""/>
    <tripinfo id="Sflow.2" depart="10.00" departLane="start_0" departPos="5.10" departSpeed="0.00" departDelay="0.00" arrival="230.00" arrivalLane="goal_0" arrivalPos="497.94" arrivalSpeed="12.78" duration="220.00" routeLength="2774.14" waitingTime="1.00" waitingCount="1" stopTime="0.00" timeLoss="19.41" rerouteNo="3" devices="tripinfo_Sflow.2 routing_Sflow.2" vType="noVar" speedFactor="1.00" vaporized=""/>
    <tripinfo id="Lflow.7" depart="70.00" departLane="startL_0" departPos="5.10" departSpeed="0.00" departDelay="0.00" arrival="239.00" arrivalLane="goal_0" arrivalPos="497.94" arrivalSpeed="13.24" duration="169.00" routeLength="2013.96" waitingTime="1.00" waitingCount="1" stopTime="0.00" timeLoss="21.04" rerouteNo="2" devices="tripinfo_Lflow.7 routing_Lflow.7" vType="DEFAULT_VEHTYPE" speedFactor="0.99" vaporized=""/>
    <tripinfo id="Sflow.0" depart="0.00" departLane="start_0" departPos="5.10" departSpeed="0.00" departDelay="0.00" arrival="241.00" arrivalLane="goal_0" arrivalPos="497.94" arrivalSpeed="13.72" duration="241.00" routeLength="2953.61" waitingTime="2.00" waitingCount="1" stopTime="0.00" timeLoss="27.83" rerouteNo="5" devices="tripinfo_Sflow.0 routing_Sflow.0" vType="noVar" speedFactor="1.00" vaporized=""/>
</tripinfos>
