<?xml version="1.0" encoding="UTF-8"?>

<!-- generated on 2021-12-01 19:20:13 by Eclipse SUMO sumo Version 1.11.0
<configuration xmlns:xsi="http://www.w3.org/2001/XMLSchema-instance" xsi:noNamespaceSchemaLocation="http://sumo.dlr.de/xsd/sumoConfiguration.xsd">

    <input>
        <net-file value="shortlong.net.xml"/>
        <route-files value="shortlong.rou.xml"/>
        <additional-files value="additional.xml"/>
    </input>

    <output>
        <tripinfo-output value="tripinfo.xml"/>
    </output>

    <time>
        <begin value="0"/>
        <end value="10000"/>
        <step-length value="1"/>
    </time>

    <processing>
        <time-to-teleport value="1000"/>
    </processing>

    <report>
        <xml-validation value="never"/>
        <xml-validation.routes value="never"/>
        <no-step-log value="true"/>
    </report>

    <traci_server>
        <remote-port value="49381"/>-->

<tripinfos xmlns:xsi="http://www.w3.org/2001/XMLSchema-instance" xsi:noNamespaceSchemaLocation="http://sumo.dlr.de/xsd/tripinfo_file.xsd">
</tripinfos>
lns:xsi="http://www.w3.org/2001/XMLSchema-instance" xsi:noNamespaceSchemaLocation="http://sumo.dlr.de/xsd/tripinfo_file.xsd">
    <tripinfo id="Rflow.0" depart="0.00" departLane="startR_0" departPos="5.10" departSpeed="0.00" departDelay="0.00" arrival="149.00" arrivalLane="goal_0" arrivalPos="497.94" arrivalSpeed="13.45" duration="149.00" routeLength="1899.30" waitingTime="0.00" waitingCount="0" stopTime="0.00" timeLoss="10.99" rerouteNo="1" devices="tripinfo_Rflow.0 routing_Rflow.0" vType="noVar" speedFactor="1.00" vaporized=""/>
    <tripinfo id="Rflow.1" depart="10.00" departLane="startR_0" departPos="5.10" departSpeed="0.00" departDelay="0.00" arrival="158.00" arrivalLane="goal_0" arrivalPos="497.94" arrivalSpeed="12.82" duration="148.00" routeLength="1899.30" waitingTime="0.00" waitingCount="0" stopTime="0.00" timeLoss="10.16" rerouteNo="1" devices="tripinfo_Rflow.1 routing_Rflow.1" vType="noVar" speedFactor="1.00" vaporized=""/>
    <tripinfo id="Lflow.0" depart="0.00" departLane="startL_0" departPos="5.10" departSpeed="0.00" departDelay="0.00" arrival="171.00" arrivalLane="goal_0" arrivalPos="497.94" arrivalSpeed="12.70" duration="171.00" routeLength="1837.90" waitingTime="25.00" waitingCount="1" stopTime="0.00" timeLoss="38.28" rerouteNo="2" devices="tripinfo_Lflow.0 routing_Lflow.0" vType="noVar" speedFactor="1.00" vaporized=""/>
    <tripinfo id="Rflow.0" depart="0.00" departLane="startR_0" departPos="5.10" departSpeed="0.00" departDelay="0.00" arrival="149.00" arrivalLane="goal_0" arrivalPos="497.94" arrivalSpeed="13.06" duration="149.00" routeLength="1899.30" waitingTime="0.00" waitingCount="0" stopTime="0.00" timeLoss="11.42" rerouteNo="1" devices="tripinfo_Rflow.0 routing_Rflow.0" vType="noVar" speedFactor="1.00" vaporized=""/>
    <tripinfo id="Rflow.1" depart="10.00" departLane="startR_0" departPos="5.10" departSpeed="0.00" departDelay="0.00" arrival="158.00" arrivalLane="goal_0" arrivalPos="497.94" arrivalSpeed="12.69" duration="148.00" routeLength="1899.30" waitingTime="0.00" waitingCount="0" stopTime="0.00" timeLoss="10.97" rerouteNo="1" devices="tripinfo_Rflow.1 routing_Rflow.1" vType="noVar" speedFactor="1.00" vaporized=""/>
    <tripinfo id="Rflow.0" depart="0.00" departLane="startR_0" departPos="5.10" departSpeed="0.00" departDelay="0.00" arrival="149.00" arrivalLane="goal_0" arrivalPos="497.94" arrivalSpeed="13.21" duration="149.00" routeLength="1899.30" waitingTime="0.00" waitingCount="0" stopTime="0.00" timeLoss="11.20" rerouteNo="2" devices="tripinfo_Rflow.0 routing_Rflow.0" vType="noVar" speedFactor="1.00" vaporized=""/>
    <tripinfo id="Rflow.0" depart="0.00" departLane="startR_0" departPos="5.10" departSpeed="0.00" departDelay="0.00" arrival="149.00" arrivalLane="goal_0" arrivalPos="497.94" arrivalSpeed="13.84" duration="149.00" routeLength="1899.30" waitingTime="0.00" waitingCount="0" stopTime="0.00" timeLoss="11.16" rerouteNo="2" devices="tripinfo_Rflow.0 routing_Rflow.0" vType="noVar" speedFactor="1.00" vaporized=""/>
    <tripinfo id="Rflow.1" depart="10.00" departLane="startR_0" departPos="5.10" departSpeed="0.00" departDelay="0.00" arrival="159.00" arrivalLane="goal_0" arrivalPos="497.94" arrivalSpeed="12.84" duration="149.00" routeLength="1899.30" waitingTime="0.00" waitingCount="0" stopTime="0.00" timeLoss="11.08" rerouteNo="2" devices="tripinfo_Rflow.1 routing_Rflow.1" vType="noVar" speedFactor="1.00" vaporized=""/>
    <tripinfo id="Rflow.0" depart="0.00" departLane="startR_0" departPos="5.10" departSpeed="0.00" departDelay="0.00" arrival="149.00" arrivalLane="goal_0" arrivalPos="497.94" arrivalSpeed="13.61" duration="149.00" routeLength="1899.30" waitingTime="0.00" waitingCount="0" stopTime="0.00" timeLoss="11.80" rerouteNo="2" devices="tripinfo_Rflow.0 routing_Rflow.0" vType="noVar" speedFactor="1.00" vaporized=""/>
    <tripinfo id="Rflow.0" depart="0.00" departLane="startR_0" departPos="5.10" departSpeed="0.00" departDelay="0.00" arrival="149.00" arrivalLane="goal_0" arrivalPos="497.94" arrivalSpeed="13.60" duration="149.00" routeLength="1899.30" waitingTime="0.00" waitingCount="0" stopTime="0.00" timeLoss="11.68" rerouteNo="2" devices="tripinfo_Rflow.0 routing_Rflow.0" vType="noVar" speedFactor="1.00" vaporized=""/>
    <tripinfo id="Rflow.1" depart="10.00" departLane="startR_0" departPos="5.10" departSpeed="0.00" departDelay="0.00" arrival="158.00" arrivalLane="goal_0" arrivalPos="497.94" arrivalSpeed="12.75" duration="148.00" routeLength="1899.30" waitingTime="0.00" waitingCount="0" stopTime="0.00" timeLoss="10.72" rerouteNo="2" devices="tripinfo_Rflow.1 routing_Rflow.1" vType="noVar" speedFactor="1.00" vaporized=""/>
    <tripinfo id="Rflow.2" depart="20.00" departLane="startR_0" departPos="5.10" departSpeed="0.00" departDelay="0.00" arrival="168.00" arrivalLane="goal_0" arrivalPos="497.94" arrivalSpeed="13.36" duration="148.00" routeLength="1899.30" waitingTime="0.00" waitingCount="0" stopTime="0.00" timeLoss="10.67" rerouteNo="1" devices="tripinfo_Rflow.2 routing_Rflow.2" vType="noVar" speedFactor="1.00" vaporized=""/>
    <tripinfo id="Lflow.0" depart="0.00" departLane="startL_0" departPos="5.10" departSpeed="0.00" departDelay="0.00" arrival="173.00" arrivalLane="goal_0" arrivalPos="497.94" arrivalSpeed="13.00" duration="173.00" routeLength="1837.90" waitingTime="25.00" waitingCount="1" stopTime="0.00" timeLoss="39.58" rerouteNo="2" devices="tripinfo_Lflow.0 routing_Lflow.0" vType="noVar" speedFactor="1.00" vaporized=""/>
    <tripinfo id="Lflow.1" depart="10.00" departLane="startL_0" departPos="5.10" departSpeed="0.00" departDelay="0.00" arrival="176.00" arrivalLane="goal_0" arrivalPos="497.94" arrivalSpeed="13.17" duration="166.00" routeLength="1837.90" waitingTime="17.00" waitingCount="1" stopTime="0.00" timeLoss="32.13" rerouteNo="2" devices="tripinfo_Lflow.1 routing_Lflow.1" vType="noVar" speedFactor="1.00" vaporized=""/>
    <tripinfo id="Rflow.0" depart="0.00" departLane="startR_0" departPos="5.10" departSpeed="0.00" departDelay="0.00" arrival="149.00" arrivalLane="goal_0" arrivalPos="497.94" arrivalSpeed="12.90" duration="149.00" routeLength="1899.30" waitingTime="0.00" waitingCount="0" stopTime="0.00" timeLoss="11.55" rerouteNo="2" devices="tripinfo_Rflow.0 routing_Rflow.0" vType="noVar" speedFactor="1.00" vaporized=""/>
    <tripinfo id="Rflow.1" depart="10.00" departLane="startR_0" departPos="5.10" departSpeed="0.00" departDelay="0.00" arrival="158.00" arrivalLane="goal_0" arrivalPos="497.94" arrivalSpeed="13.64" duration="148.00" routeLength="1899.30" waitingTime="0.00" waitingCount="0" stopTime="0.00" timeLoss="10.61" rerouteNo="2" devices="tripinfo_Rflow.1 routing_Rflow.1" vType="noVar" speedFactor="1.00" vaporized=""/>
    <tripinfo id="Rflow.2" depart="20.00" departLane="startR_0" departPos="5.10" departSpeed="0.00" departDelay="0.00" arrival="168.00" arrivalLane="goal_0" arrivalPos="497.94" arrivalSpeed="13.25" duration="148.00" routeLength="1899.30" waitingTime="0.00" waitingCount="0" stopTime="0.00" timeLoss="10.80" rerouteNo="1" devices="tripinfo_Rflow.2 routing_Rflow.2" vType="noVar" speedFactor="1.00" vaporized=""/>
    <tripinfo id="Lflow.0" depart="0.00" departLane="startL_0" departPos="5.10" departSpeed="0.00" departDelay="0.00" arrival="173.00" arrivalLane="goal_0" arrivalPos="497.94" arrivalSpeed="13.50" duration="173.00" routeLength="1837.90" waitingTime="25.00" waitingCount="1" stopTime="0.00" timeLoss="40.07" rerouteNo="2" devices="tripinfo_Lflow.0 routing_Lflow.0" vType="noVar" speedFactor="1.00" vaporized=""/>
    <tripinfo id="Rflow.0" depart="0.00" departLane="startR_0" departPos="5.10" departSpeed="0.00" departDelay="0.00" arrival="149.00" arrivalLane="goal_0" arrivalPos="497.94" arrivalSpeed="12.62" duration="149.00" routeLength="1899.30" waitingTime="0.00" waitingCount="0" stopTime="0.00" timeLoss="11.76" rerouteNo="2" devices="tripinfo_Rflow.0 routing_Rflow.0" vType="noVar" speedFactor="1.00" vaporized=""/>
    <tripinfo id="Rflow.1" depart="10.00" departLane="startR_0" departPos="5.10" departSpeed="0.00" departDelay="0.00" arrival="159.00" arrivalLane="goal_0" arrivalPos="497.94" arrivalSpeed="13.29" duration="149.00" routeLength="1899.30" waitingTime="0.00" waitingCount="0" stopTime="0.00" timeLoss="11.18" rerouteNo="3" devices="tripinfo_Rflow.1 routing_Rflow.1" vType="noVar" speedFactor="1.00" vaporized=""/>
    <tripinfo id="Rflow.0" depart="0.00" departLane="startR_0" departPos="5.10" departSpeed="0.00" departDelay="0.00" arrival="149.00" arrivalLane="goal_0" arrivalPos="497.94" arrivalSpeed="13.82" duration="149.00" routeLength="1899.30" waitingTime="0.00" waitingCount="0" stopTime="0.00" timeLoss="11.17" rerouteNo="2" devices="tripinfo_Rflow.0 routing_Rflow.0" vType="noVar" speedFactor="1.00" vaporized=""/>
    <tripinfo id="Rflow.0" depart="0.00" departLane="startR_0" departPos="5.10" departSpeed="0.00" departDelay="0.00" arrival="149.00" arrivalLane="goal_0" arrivalPos="497.94" arrivalSpeed="13.75" duration="149.00" routeLength="1899.30" waitingTime="0.00" waitingCount="0" stopTime="0.00" timeLoss="11.44" rerouteNo="2" devices="tripinfo_Rflow.0 routing_Rflow.0" vType="noVar" speedFactor="1.00" vaporized=""/>
    <tripinfo id="Rflow.1" depart="10.00" departLane="startR_0" departPos="5.10" departSpeed="0.00" departDelay="0.00" arrival="158.00" arrivalLane="goal_0" arrivalPos="497.94" arrivalSpeed="13.41" duration="148.00" routeLength="1899.30" waitingTime="0.00" waitingCount="0" stopTime="0.00" timeLoss="10.89" rerouteNo="3" devices="tripinfo_Rflow.1 routing_Rflow.1" vType="noVar" speedFactor="1.00" vaporized=""/>
    <tripinfo id="Rflow.2" depart="20.00" departLane="startR_0" departPos="5.10" departSpeed="0.00" departDelay="0.00" arrival="169.00" arrivalLane="goal_0" arrivalPos="497.94" arrivalSpeed="13.87" duration="149.00" routeLength="1899.30" waitingTime="0.00" waitingCount="0" stopTime="0.00" timeLoss="11.14" rerouteNo="1" devices="tripinfo_Rflow.2 routing_Rflow.2" vType="noVar" speedFactor="1.00" vaporized=""/>
    <tripinfo id="Lflow.0" depart="0.00" departLane="startL_0" departPos="5.10" departSpeed="0.00" departDelay="0.00" arrival="173.00" arrivalLane="goal_0" arrivalPos="497.94" arrivalSpeed="13.49" duration="173.00" routeLength="1837.90" waitingTime="25.00" waitingCount="1" stopTime="0.00" timeLoss="39.91" rerouteNo="2" devices="tripinfo_Lflow.0 routing_Lflow.0" vType="noVar" speedFactor="1.00" vaporized=""/>
    <tripinfo id="Lflow.1" depart="10.00" departLane="startL_0" departPos="5.10" departSpeed="0.00" departDelay="0.00" arrival="176.00" arrivalLane="goal_0" arrivalPos="497.94" arrivalSpeed="13.31" duration="166.00" routeLength="1837.90" waitingTime="14.00" waitingCount="1" stopTime="0.00" timeLoss="32.15" rerouteNo="2" devices="tripinfo_Lflow.1 routing_Lflow.1" vType="noVar" speedFactor="1.00" vaporized=""/>
    <tripinfo id="Lflow.2" depart="20.00" departLane="startL_0" departPos="5.10" departSpeed="0.00" departDelay="0.00" arrival="178.00" arrivalLane="goal_0" arrivalPos="497.94" arrivalSpeed="13.38" duration="158.00" routeLength="1837.90" waitingTime="6.00" waitingCount="1" stopTime="0.00" timeLoss="24.52" rerouteNo="1" devices="tripinfo_Lflow.2 routing_Lflow.2" vType="noVar" speedFactor="1.00" vaporized=""/>
    <tripinfo id="Lflow.3" depart="30.00" departLane="startL_0" departPos="5.10" departSpeed="0.00" departDelay="0.00" arrival="180.00" arrivalLane="goal_0" arrivalPos="497.94" arrivalSpeed="13.00" duration="150.00" routeLength="1837.90" waitingTime="0.00" waitingCount="0" stopTime="0.00" timeLoss="17.08" rerouteNo="1" devices="tripinfo_Lflow.3 routing_Lflow.3" vType="noVar" speedFactor="1.00" vaporized=""/>
    <tripinfo id="Sflow.1" depart="4.00" departLane="start_1" departPos="5.10" departSpeed="13.89" departDelay="0.00" arrival="219.00" arrivalLane="goal_0" arrivalPos="497.94" arrivalSpeed="13.80" duration="215.00" routeLength="2774.14" waitingTime="0.00" waitingCount="0" stopTime="0.00" timeLoss="14.86" rerouteNo="1" devices="tripinfo_Sflow.1 routing_Sflow.1" vType="noVar" speedFactor="1.00" vaporized=""/>
    <tripinfo id="Rflow.3" depart="30.00" departLane="startR_0" departPos="5.10" departSpeed="0.00" departDelay="0.00" arrival="223.00" arrivalLane="goal_0" arrivalPos="497.94" arrivalSpeed="13.23" duration="193.00" routeLength="1899.30" waitingTime="39.00" waitingCount="1" stopTime="0.00" timeLoss="55.14" rerouteNo="1" devices="tripinfo_Rflow.3 routing_Rflow.3" vType="noVar" speedFactor="1.00" vaporized=""/>
    <tripinfo id="Sflow.2" depart="8.00" departLane="start_1" departPos="5.10" departSpeed="13.89" departDelay="0.00" arrival="225.00" arrivalLane="goal_0" arrivalPos="497.94" arrivalSpeed="12.81" duration="217.00" routeLength="2774.14" waitingTime="0.00" waitingCount="0" stopTime="0.00" timeLoss="15.45" rerouteNo="1" devices="tripinfo_Sflow.2 routing_Sflow.2" vType="noVar" speedFactor="1.00" vaporized=""/>
    <tripinfo id="Sflow.3" depart="12.00" departLane="start_1" departPos="5.10" departSpeed="13.89" departDelay="0.00" arrival="227.00" arrivalLane="goal_0" arrivalPos="497.94" arrivalSpeed="12.79" duration="215.00" routeLength="2774.14" waitingTime="0.00" waitingCount="0" stopTime="0.00" timeLoss="14.08" rerouteNo="1" devices="tripinfo_Sflow.3 routing_Sflow.3" vType="noVar" speedFactor="1.00" vaporized=""/>
    <tripinfo id="Sflow.4" depart="16.00" departLane="start_1" departPos="5.10" departSpeed="13.89" departDelay="0.00" arrival="231.00" arrivalLane="goal_0" arrivalPos="497.94" arrivalSpeed="13.29" duration="215.00" routeLength="2774.14" waitingTime="0.00" waitingCount="0" stopTime="0.00" timeLoss="13.52" rerouteNo="1" devices="tripinfo_Sflow.4 routing_Sflow.4" vType="noVar" speedFactor="1.00" vaporized=""/>
    <tripinfo id="Sflow.0" depart="0.00" departLane="start_1" departPos="5.10" departSpeed="13.89" departDelay="0.00" arrival="235.00" arrivalLane="goal_1" arrivalPos="497.94" arrivalSpeed="12.60" duration="235.00" routeLength="2953.61" waitingTime="1.00" waitingCount="1" stopTime="0.00" timeLoss="21.24" rerouteNo="2" devices="tripinfo_Sflow.0 routing_Sflow.0" vType="noVar" speedFactor="1.00" vaporized=""/>
    <tripinfo id="Sflow.5" depart="20.00" departLane="start_1" departPos="5.10" departSpeed="13.89" departDelay="0.00" arrival="235.00" arrivalLane="goal_0" arrivalPos="497.94" arrivalSpeed="12.91" duration="215.00" routeLength="2774.14" waitingTime="0.00" waitingCount="0" stopTime="0.00" timeLoss="13.32" rerouteNo="1" devices="tripinfo_Sflow.5 routing_Sflow.5" vType="noVar" speedFactor="1.00" vaporized=""/>
    <tripinfo id="Rflow.0" depart="0.00" departLane="startR_0" departPos="5.10" departSpeed="0.00" departDelay="0.00" arrival="149.00" arrivalLane="goal_0" arrivalPos="497.94" arrivalSpeed="13.49" duration="149.00" routeLength="1899.30" waitingTime="0.00" waitingCount="0" stopTime="0.00" timeLoss="11.15" rerouteNo="2" devices="tripinfo_Rflow.0 routing_Rflow.0" vType="noVar" speedFactor="1.00" vaporized=""/>
    <tripinfo id="Rflow.1" depart="10.00" departLane="startR_0" departPos="5.10" departSpeed="0.00" departDelay="0.00" arrival="159.00" arrivalLane="goal_0" arrivalPos="497.94" arrivalSpeed="12.84" duration="149.00" routeLength="1899.30" waitingTime="0.00" waitingCount="0" stopTime="0.00" timeLoss="11.23" rerouteNo="3" devices="tripinfo_Rflow.1 routing_Rflow.1" vType="noVar" speedFactor="1.00" vaporized=""/>
    <tripinfo id="Rflow.2" depart="20.00" departLane="startR_0" departPos="5.10" departSpeed="0.00" departDelay="0.00" arrival="167.00" arrivalLane="goal_0" arrivalPos="497.94" arrivalSpeed="12.78" duration="147.00" routeLength="1899.30" waitingTime="0.00" waitingCount="0" stopTime="0.00" timeLoss="9.99" rerouteNo="1" devices="tripinfo_Rflow.2 routing_Rflow.2" vType="noVar" speedFactor="1.00" vaporized=""/>
    <tripinfo id="Lflow.0" depart="0.00" departLane="startL_0" departPos="5.10" departSpeed="0.00" departDelay="0.00" arrival="172.00" arrivalLane="goal_0" arrivalPos="497.94" arrivalSpeed="12.99" duration="172.00" routeLength="1837.90" waitingTime="25.00" waitingCount="1" stopTime="0.00" timeLoss="39.00" rerouteNo="2" devices="tripinfo_Lflow.0 routing_Lflow.0" vType="noVar" speedFactor="1.00" vaporized=""/>
    <tripinfo id="Lflow.1" depart="10.00" departLane="startL_0" departPos="5.10" departSpeed="0.00" departDelay="0.00" arrival="174.00" arrivalLane="goal_0" arrivalPos="497.94" arrivalSpeed="12.96" duration="164.00" routeLength="1837.90" waitingTime="14.00" waitingCount="1" stopTime="0.00" timeLoss="30.90" rerouteNo="2" devices="tripinfo_Lflow.1 routing_Lflow.1" vType="noVar" speedFactor="1.00" vaporized=""/>
    <tripinfo id="Lflow.2" depart="20.00" departLane="startL_0" departPos="5.10" departSpeed="0.00" departDelay="0.00" arrival="177.00" arrivalLane="goal_0" arrivalPos="497.94" arrivalSpeed="13.71" duration="157.00" routeLength="1837.90" waitingTime="7.00" waitingCount="1" stopTime="0.00" timeLoss="23.45" rerouteNo="1" devices="tripinfo_Lflow.2 routing_Lflow.2" vType="noVar" speedFactor="1.00" vaporized=""/>
    <tripinfo id="Lflow.3" depart="30.00" departLane="startL_0" departPos="5.10" departSpeed="0.00" departDelay="0.00" arrival="179.00" arrivalLane="goal_0" arrivalPos="497.94" arrivalSpeed="12.99" duration="149.00" routeLength="1837.90" waitingTime="0.00" waitingCount="0" stopTime="0.00" timeLoss="16.07" rerouteNo="1" devices="tripinfo_Lflow.3 routing_Lflow.3" vType="noVar" speedFactor="1.00" vaporized=""/>
    <tripinfo id="Sflow.0" depart="0.00" departLane="start_1" departPos="5.10" departSpeed="13.89" departDelay="0.00" arrival="217.00" arrivalLane="goal_0" arrivalPos="497.94" arrivalSpeed="13.55" duration="217.00" routeLength="2774.14" waitingTime="0.00" waitingCount="0" stopTime="0.00" timeLoss="16.08" rerouteNo="2" devices="tripinfo_Sflow.0 routing_Sflow.0" vType="noVar" speedFactor="1.00" vaporized=""/>
    <tripinfo id="Rflow.0" depart="0.00" departLane="startR_0" departPos="5.10" departSpeed="0.00" departDelay="0.00" arrival="149.00" arrivalLane="goal_0" arrivalPos="497.94" arrivalSpeed="12.83" duration="149.00" routeLength="1899.30" waitingTime="0.00" waitingCount="0" stopTime="0.00" timeLoss="11.49" rerouteNo="2" devices="tripinfo_Rflow.0 routing_Rflow.0" vType="noVar" speedFactor="1.00" vaporized=""/>
    <tripinfo id="Rflow.1" depart="10.00" departLane="startR_0" departPos="5.10" departSpeed="0.00" departDelay="0.00" arrival="158.00" arrivalLane="goal_0" arrivalPos="497.94" arrivalSpeed="12.72" duration="148.00" routeLength="1899.30" waitingTime="0.00" waitingCount="0" stopTime="0.00" timeLoss="10.89" rerouteNo="3" devices="tripinfo_Rflow.1 routing_Rflow.1" vType="noVar" speedFactor="1.00" vaporized=""/>
    <tripinfo id="Rflow.2" depart="20.00" departLane="startR_0" departPos="5.10" departSpeed="0.00" departDelay="0.00" arrival="168.00" arrivalLane="goal_0" arrivalPos="497.94" arrivalSpeed="12.79" duration="148.00" routeLength="1899.30" waitingTime="0.00" waitingCount="0" stopTime="0.00" timeLoss="10.96" rerouteNo="1" devices="tripinfo_Rflow.2 routing_Rflow.2" vType="noVar" speedFactor="1.00" vaporized=""/>
    <tripinfo id="Lflow.0" depart="0.00" departLane="startL_0" departPos="5.10" departSpeed="0.00" departDelay="0.00" arrival="173.00" arrivalLane="goal_0" arrivalPos="497.94" arrivalSpeed="13.75" duration="173.00" routeLength="1837.90" waitingTime="25.00" waitingCount="1" stopTime="0.00" timeLoss="39.83" rerouteNo="2" devices="tripinfo_Lflow.0 routing_Lflow.0" vType="noVar" speedFactor="1.00" vaporized=""/>
    <tripinfo id="Lflow.1" depart="10.00" departLane="startL_0" departPos="5.10" departSpeed="0.00" departDelay="0.00" arrival="176.00" arrivalLane="goal_0" arrivalPos="497.94" arrivalSpeed="13.03" duration="166.00" routeLength="1837.90" waitingTime="14.00" waitingCount="1" stopTime="0.00" timeLoss="32.33" rerouteNo="2" devices="tripinfo_Lflow.1 routing_Lflow.1" vType="noVar" speedFactor="1.00" vaporized=""/>
    <tripinfo id="Lflow.2" depart="20.00" departLane="startL_0" departPos="5.10" departSpeed="0.00" departDelay="0.00" arrival="178.00" arrivalLane="goal_0" arrivalPos="497.94" arrivalSpeed="13.77" duration="158.00" routeLength="1837.90" waitingTime="6.00" waitingCount="1" stopTime="0.00" timeLoss="24.63" rerouteNo="1" devices="tripinfo_Lflow.2 routing_Lflow.2" vType="noVar" speedFactor="1.00" vaporized=""/>
    <tripinfo id="Lflow.3" depart="30.00" departLane="startL_0" departPos="5.10" departSpeed="0.00" departDelay="0.00" arrival="180.00" arrivalLane="goal_0" arrivalPos="497.94" arrivalSpeed="12.93" duration="150.00" routeLength="1837.90" waitingTime="0.00" waitingCount="0" stopTime="0.00" timeLoss="16.43" rerouteNo="1" devices="tripinfo_Lflow.3 routing_Lflow.3" vType="noVar" speedFactor="1.00" vaporized=""/>
    <tripinfo id="Rflow.0" depart="0.00" departLane="startR_0" departPos="5.10" departSpeed="0.00" departDelay="0.00" arrival="149.00" arrivalLane="goal_0" arrivalPos="497.94" arrivalSpeed="12.78" duration="149.00" routeLength="1899.30" waitingTime="0.00" waitingCount="0" stopTime="0.00" timeLoss="11.11" rerouteNo="2" devices="tripinfo_Rflow.0 routing_Rflow.0" vType="noVar" speedFactor="1.00" vaporized=""/>
    <tripinfo id="Rflow.1" depart="10.00" departLane="startR_0" departPos="5.10" departSpeed="0.00" departDelay="0.00" arrival="159.00" arrivalLane="goal_0" arrivalPos="497.94" arrivalSpeed="13.68" duration="149.00" routeLength="1899.30" waitingTime="0.00" waitingCount="0" stopTime="0.00" timeLoss="11.44" rerouteNo="3" devices="tripinfo_Rflow.1 routing_Rflow.1" vType="noVar" speedFactor="1.00" vaporized=""/>
    <tripinfo id="Rflow.2" depart="20.00" departLane="startR_0" departPos="5.10" departSpeed="0.00" departDelay="0.00" arrival="168.00" arrivalLane="goal_0" arrivalPos="497.94" arrivalSpeed="13.55" duration="148.00" routeLength="1899.30" waitingTime="0.00" waitingCount="0" stopTime="0.00" timeLoss="10.80" rerouteNo="1" devices="tripinfo_Rflow.2 routing_Rflow.2" vType="noVar" speedFactor="1.00" vaporized=""/>
    <tripinfo id="Lflow.0" depart="0.00" departLane="startL_0" departPos="5.10" departSpeed="0.00" departDelay="0.00" arrival="173.00" arrivalLane="goal_0" arrivalPos="497.94" arrivalSpeed="13.69" duration="173.00" routeLength="1837.90" waitingTime="25.00" waitingCount="1" stopTime="0.00" timeLoss="39.51" rerouteNo="2" devices="tripinfo_Lflow.0 routing_Lflow.0" vType="noVar" speedFactor="1.00" vaporized=""/>
    <tripinfo id="Lflow.1" depart="10.00" departLane="startL_0" departPos="5.10" departSpeed="0.00" departDelay="0.00" arrival="175.00" arrivalLane="goal_0" arrivalPos="497.94" arrivalSpeed="12.84" duration="165.00" routeLength="1837.90" waitingTime="14.00" waitingCount="1" stopTime="0.00" timeLoss="31.70" rerouteNo="2" devices="tripinfo_Lflow.1 routing_Lflow.1" vType="noVar" speedFactor="1.00" vaporized=""/>
    <tripinfo id="Lflow.2" depart="20.00" departLane="startL_0" departPos="5.10" departSpeed="0.00" departDelay="0.00" arrival="178.00" arrivalLane="goal_0" arrivalPos="497.94" arrivalSpeed="13.44" duration="158.00" routeLength="1837.90" waitingTime="8.00" waitingCount="1" stopTime="0.00" timeLoss="24.42" rerouteNo="1" devices="tripinfo_Lflow.2 routing_Lflow.2" vType="noVar" speedFactor="1.00" vaporized=""/>
    <tripinfo id="Lflow.3" depart="30.00" departLane="startL_0" departPos="5.10" departSpeed="0.00" departDelay="0.00" arrival="179.00" arrivalLane="goal_1" arrivalPos="497.94" arrivalSpeed="13.86" duration="149.00" routeLength="1837.90" waitingTime="0.00" waitingCount="0" stopTime="0.00" timeLoss="15.68" rerouteNo="1" devices="tripinfo_Lflow.3 routing_Lflow.3" vType="noVar" speedFactor="1.00" vaporized=""/>
    <tripinfo id="Sflow.1" depart="4.00" departLane="start_1" departPos="5.10" departSpeed="13.89" departDelay="0.00" arrival="217.00" arrivalLane="goal_0" arrivalPos="497.94" arrivalSpeed="12.82" duration="213.00" routeLength="2774.14" waitingTime="0.00" waitingCount="0" stopTime="0.00" timeLoss="12.00" rerouteNo="1" devices="tripinfo_Sflow.1 routing_Sflow.1" vType="noVar" speedFactor="1.00" vaporized=""/>
    <tripinfo id="Rflow.0" depart="0.00" departLane="startR_0" departPos="5.10" departSpeed="0.00" departDelay="0.00" arrival="149.00" arrivalLane="goal_0" arrivalPos="497.94" arrivalSpeed="13.33" duration="149.00" routeLength="1899.30" waitingTime="0.00" waitingCount="0" stopTime="0.00" timeLoss="11.69" rerouteNo="2" devices="tripinfo_Rflow.0 routing_Rflow.0" vType="noVar" speedFactor="1.00" vaporized=""/>
    <tripinfo id="Rflow.1" depart="10.00" departLane="startR_0" departPos="5.10" departSpeed="0.00" departDelay="0.00" arrival="159.00" arrivalLane="goal_0" arrivalPos="497.94" arrivalSpeed="13.13" duration="149.00" routeLength="1899.30" waitingTime="0.00" waitingCount="0" stopTime="0.00" timeLoss="11.18" rerouteNo="3" devices="tripinfo_Rflow.1 routing_Rflow.1" vType="noVar" speedFactor="1.00" vaporized=""/>
    <tripinfo id="Rflow.2" depart="20.00" departLane="startR_0" departPos="5.10" departSpeed="0.00" departDelay="0.00" arrival="168.00" arrivalLane="goal_0" arrivalPos="497.94" arrivalSpeed="12.83" duration="148.00" routeLength="1899.30" waitingTime="0.00" waitingCount="0" stopTime="0.00" timeLoss="10.72" rerouteNo="1" devices="tripinfo_Rflow.2 routing_Rflow.2" vType="noVar" speedFactor="1.00" vaporized=""/>
    <tripinfo id="Lflow.0" depart="0.00" departLane="startL_0" departPos="5.10" departSpeed="0.00" departDelay="0.00" arrival="173.00" arrivalLane="goal_0" arrivalPos="497.94" arrivalSpeed="12.69" duration="173.00" routeLength="1837.90" waitingTime="25.00" waitingCount="1" stopTime="0.00" timeLoss="39.81" rerouteNo="2" devices="tripinfo_Lflow.0 routing_Lflow.0" vType="noVar" speedFactor="1.00" vaporized=""/>
    <tripinfo id="Lflow.1" depart="10.00" departLane="startL_0" departPos="5.10" departSpeed="0.00" departDelay="0.00" arrival="175.00" arrivalLane="goal_0" arrivalPos="497.94" arrivalSpeed="13.78" duration="165.00" routeLength="1837.90" waitingTime="14.00" waitingCount="1" stopTime="0.00" timeLoss="31.60" rerouteNo="2" devices="tripinfo_Lflow.1 routing_Lflow.1" vType="noVar" speedFactor="1.00" vaporized=""/>
    <tripinfo id="Lflow.2" depart="20.00" departLane="startL_0" departPos="5.10" departSpeed="0.00" departDelay="0.00" arrival="177.00" arrivalLane="goal_0" arrivalPos="497.94" arrivalSpeed="12.94" duration="157.00" routeLength="1837.90" waitingTime="8.00" waitingCount="1" stopTime="0.00" timeLoss="24.15" rerouteNo="2" devices="tripinfo_Lflow.2 routing_Lflow.2" vType="noVar" speedFactor="1.00" vaporized=""/>
    <tripinfo id="Rflow.0" depart="0.00" departLane="startR_0" departPos="5.10" departSpeed="0.00" departDelay="0.00" arrival="149.00" arrivalLane="goal_0" arrivalPos="497.94" arrivalSpeed="12.93" duration="149.00" routeLength="1899.30" waitingTime="0.00" waitingCount="0" stopTime="0.00" timeLoss="11.17" rerouteNo="2" devices="tripinfo_Rflow.0 routing_Rflow.0" vType="noVar" speedFactor="1.00" vaporized=""/>
    <tripinfo id="Rflow.1" depart="10.00" departLane="startR_0" departPos="5.10" departSpeed="0.00" departDelay="0.00" arrival="158.00" arrivalLane="goal_0" arrivalPos="497.94" arrivalSpeed="13.53" duration="148.00" routeLength="1899.30" waitingTime="0.00" waitingCount="0" stopTime="0.00" timeLoss="10.65" rerouteNo="3" devices="tripinfo_Rflow.1 routing_Rflow.1" vType="noVar" speedFactor="1.00" vaporized=""/>
    <tripinfo id="Rflow.2" depart="20.00" departLane="startR_0" departPos="5.10" departSpeed="0.00" departDelay="0.00" arrival="169.00" arrivalLane="goal_0" arrivalPos="497.94" arrivalSpeed="13.70" duration="149.00" routeLength="1899.30" waitingTime="0.00" waitingCount="0" stopTime="0.00" timeLoss="10.88" rerouteNo="1" devices="tripinfo_Rflow.2 routing_Rflow.2" vType="noVar" speedFactor="1.00" vaporized=""/>
    <tripinfo id="Lflow.0" depart="0.00" departLane="startL_0" departPos="5.10" departSpeed="0.00" departDelay="0.00" arrival="173.00" arrivalLane="goal_0" arrivalPos="497.94" arrivalSpeed="12.81" duration="173.00" routeLength="1837.90" waitingTime="25.00" waitingCount="1" stopTime="0.00" timeLoss="39.37" rerouteNo="2" devices="tripinfo_Lflow.0 routing_Lflow.0" vType="noVar" speedFactor="1.00" vaporized=""/>
    <tripinfo id="Lflow.1" depart="10.00" departLane="startL_0" departPos="5.10" departSpeed="0.00" departDelay="0.00" arrival="175.00" arrivalLane="goal_0" arrivalPos="497.94" arrivalSpeed="13.04" duration="165.00" routeLength="1837.90" waitingTime="14.00" waitingCount="1" stopTime="0.00" timeLoss="31.69" rerouteNo="2" devices="tripinfo_Lflow.1 routing_Lflow.1" vType="noVar" speedFactor="1.00" vaporized=""/>